ITEM: TIMESTEP
0.0000000000000000
ITEM: NUMBER OF ATOMS
5
ITEM: BOX BOUNDS xy xz yz
0.0000000000000000 20.500000000000000 0.0000000000000000
0.0000000000000000 20.500000000000000 6.9169022953564281E-310
0.0000000000000000 10.250000000000000 0.0000000000000000
ITEM: ATOMS type x y z vx vy vz
1 0.0000000000000000 0.0000000000000000 0.0000000000000000 5.4795568544828067E-002 2.2112878504719494E-004 3.1795278575238042
1 0.0000000000000000 0.0000000000000000 2.0499999999999998 8.6121618682551842E-004 -2.6707317009804085E-004 3.1799998721664440
1 0.0000000000000000 0.0000000000000000 4.0999999999999996 -5.0216976576537094E-004 1.5111130055371722E-004 3.1799999567595760
1 0.0000000000000000 0.0000000000000000 6.1499999999999995 -5.2845644262707514E-004 1.6921653577569445E-004 3.1799999515879791
1 0.0000000000000000 0.0000000000000000 8.1999999999999993 8.5068752543767995E-004 -2.5963453964590556E-004 3.1799998756164500
ITEM: TIMESTEP
5.0000000000000010E-002
ITEM: NUMBER OF ATOMS
5
ITEM: BOX BOUNDS xy xz yz
0.0000000000000000 20.500000000000000 0.0000000000000000
0.0000000000000000 20.500000000000000 6.9169022953564281E-310
0.0000000000000000 10.250000000000000 0.0000000000000000
ITEM: ATOMS type x y z vx vy vz
1 0.0000000000000000 0.0000000000000000 0.0000000000000000 5.4133048876483465E-002 4.1410988824204384E-004 3.1795391869785692
1 0.0000000000000000 0.0000000000000000 2.0499999999999998 1.6932302334066954E-003 -5.1436983235462856E-004 3.1799995076092467
1 0.0000000000000000 0.0000000000000000 4.0999999999999996 -9.9575263996532566E-004 2.9675137169545398E-004 3.1799998302539745
1 0.0000000000000000 0.0000000000000000 6.1499999999999995 -1.0472717507576496E-003 3.3163939483137430E-004 3.1799998102574136
1 0.0000000000000000 0.0000000000000000 8.1999999999999993 1.6719628221900978E-003 -4.9922664997246503E-004 3.1799995212756040
ITEM: TIMESTEP
0.10000000000000002
ITEM: NUMBER OF ATOMS
5
ITEM: BOX BOUNDS xy xz yz
0.0000000000000000 20.500000000000000 0.0000000000000000
0.0000000000000000 20.500000000000000 6.9169022953564281E-310
0.0000000000000000 10.250000000000000 0.0000000000000000
ITEM: ATOMS type x y z vx vy vz
1 0.0000000000000000 0.0000000000000000 0.0000000000000000 5.3510276239706736E-002 5.8032729482812248E-004 3.1795497029543323
1 0.0000000000000000 0.0000000000000000 2.0499999999999998 2.4970830381326799E-003 -7.4318664829846554E-004 3.1799989327435165
1 0.0000000000000000 0.0000000000000000 4.0999999999999996 -1.4811463455044773E-003 4.3739267321754968E-004 3.1799996249831786
1 0.0000000000000000 0.0000000000000000 6.1499999999999995 -1.5568843673530838E-003 4.8784566671004924E-004 3.1799995814650148
1 0.0000000000000000 0.0000000000000000 8.1999999999999993 2.4648723072590788E-003 -7.2009230818232523E-004 3.1799989631871854
ITEM: TIMESTEP
0.15000000000000002
ITEM: NUMBER OF ATOMS
5
ITEM: BOX BOUNDS xy xz yz
0.0000000000000000 20.500000000000000 0.0000000000000000
0.0000000000000000 20.500000000000000 6.9169022953564281E-310
0.0000000000000000 10.250000000000000 0.0000000000000000
ITEM: ATOMS type x y z vx vy vz
1 0.0000000000000000 0.0000000000000000 0.0000000000000000 5.2926020279971835E-002 7.2129846893248084E-004 3.1795594531484768
1 0.0000000000000000 0.0000000000000000 2.0499999999999998 3.2737851330438190E-003 -9.5474966281161404E-004 3.1799981715063890
1 0.0000000000000000 0.0000000000000000 4.0999999999999996 -1.9587384946192338E-003 5.7348459460281357E-004 3.1799993450406454
1 0.0000000000000000 0.0000000000000000 6.1499999999999995 -2.0577222216112507E-003 6.3838317449084329E-004 3.1799992701644095
1 0.0000000000000000 0.0000000000000000 8.1999999999999993 3.2304349440661186E-003 -9.2347689077749019E-004 3.1799982250750558
ITEM: TIMESTEP
0.20000000000000004
ITEM: NUMBER OF ATOMS
5
ITEM: BOX BOUNDS xy xz yz
0.0000000000000000 20.500000000000000 0.0000000000000000
0.0000000000000000 20.500000000000000 6.9169022953564281E-310
0.0000000000000000 10.250000000000000 0.0000000000000000
ITEM: ATOMS type x y z vx vy vz
1 0.0000000000000000 0.0000000000000000 0.0000000000000000 5.2379084530640434E-002 8.3845613845132398E-004 3.1795684814916370
1 0.0000000000000000 0.0000000000000000 2.0499999999999998 4.0243199580460437E-003 -1.1502196298927606E-003 3.1799972455717112
1 0.0000000000000000 0.0000000000000000 4.0999999999999996 -2.4289067182473680E-003 7.0545459634250652E-004 3.1799989941422893
1 0.0000000000000000 0.0000000000000000 6.1499999999999995 -2.5502027148143285E-003 7.8377188331688410E-004 3.1799988808437885
1 0.0000000000000000 0.0000000000000000 8.1999999999999993 3.9696425468197932E-003 -1.1105586572276508E-003 3.1799973283947147
ITEM: TIMESTEP
0.25000000000000006
ITEM: NUMBER OF ATOMS
5
ITEM: BOX BOUNDS xy xz yz
0.0000000000000000 20.500000000000000 0.0000000000000000
0.0000000000000000 20.500000000000000 6.9169022953564281E-310
0.0000000000000000 10.250000000000000 0.0000000000000000
ITEM: ATOMS type x y z vx vy vz
1 0.0000000000000000 0.0000000000000000 0.0000000000000000 5.1868305986044444E-002 9.3315242105721939E-004 3.1795768284570030
1 0.0000000000000000 0.0000000000000000 2.0499999999999998 4.7496442342519415E-003 -1.3306952355484440E-003 3.1799961745464143
1 0.0000000000000000 0.0000000000000000 4.0999999999999996 -2.8920188286797178E-003 8.3370930245455551E-004 3.1799985756531242
1 0.0000000000000000 0.0000000000000000 6.1499999999999995 -3.0347328157214882E-003 9.2450532520476194E-004 3.1799984175603986
1 0.0000000000000000 0.0000000000000000 8.1999999999999993 4.6834599421265461E-003 -1.2824519906176331E-003 3.1799962925324090
ITEM: TIMESTEP
0.30000000000000010
ITEM: NUMBER OF ATOMS
5
ITEM: BOX BOUNDS xy xz yz
0.0000000000000000 20.500000000000000 0.0000000000000000
0.0000000000000000 20.500000000000000 6.9169022953564281E-310
0.0000000000000000 10.250000000000000 0.0000000000000000
ITEM: ATOMS type x y z vx vy vz
1 0.0000000000000000 0.0000000000000000 0.0000000000000000 5.1392555072550777E-002 1.0066625725623087E-003 3.1795845313363782
1 0.0000000000000000 0.0000000000000000 2.0499999999999998 5.4506882875312518E-003 -1.4972161337046300E-003 3.1799949761502821
1 0.0000000000000000 0.0000000000000000 4.0999999999999996 -3.3484329398264148E-003 9.5863551730770774E-004 3.1799980926118172
1 0.0000000000000000 0.0000000000000000 6.1499999999999995 -3.5117091774573565E-003 1.0610519452285624E-003 3.1799978839721605
1 0.0000000000000000 0.0000000000000000 8.1999999999999993 5.3728252951031411E-003 -1.4402105634868554E-003 3.1799951349871414
ITEM: TIMESTEP
0.35000000000000009
ITEM: NUMBER OF ATOMS
5
ITEM: BOX BOUNDS xy xz yz
0.0000000000000000 20.500000000000000 0.0000000000000000
0.0000000000000000 20.500000000000000 6.9169022953564281E-310
0.0000000000000000 10.250000000000000 0.0000000000000000
ITEM: ATOMS type x y z vx vy vz
1 0.0000000000000000 0.0000000000000000 0.0000000000000000 5.0950734790073816E-002 1.0601889181272646E-003 3.1795916245052300
1 0.0000000000000000 0.0000000000000000 2.0499999999999998 6.1283564104492464E-003 -1.6507658524696786E-003 3.1799936663804536
1 0.0000000000000000 0.0000000000000000 4.0999999999999996 -3.7984977078514585E-003 1.0806012586664251E-003 3.1799975477531568
1 0.0000000000000000 0.0000000000000000 6.1499999999999995 -3.9815182560366856E-003 1.1938563881469858E-003 3.1799972833666534
1 0.0000000000000000 0.0000000000000000 8.1999999999999993 6.0386505212044594E-003 -1.5848303628728097E-003 3.1799938715369578
ITEM: TIMESTEP
0.40000000000000008
ITEM: NUMBER OF ATOMS
5
ITEM: BOX BOUNDS xy xz yz
0.0000000000000000 20.500000000000000 0.0000000000000000
0.0000000000000000 20.500000000000000 6.9169022953564281E-310
0.0000000000000000 10.250000000000000 0.0000000000000000
ITEM: ATOMS type x y z vx vy vz
1 0.0000000000000000 0.0000000000000000 0.0000000000000000 5.0541780486986647E-002 1.0948643225640702E-003 3.1795981396549662
1 0.0000000000000000 0.0000000000000000 2.0499999999999998 6.7835272429110863E-003 -1.7922745682708106E-003 3.1799922596619647
1 0.0000000000000000 0.0000000000000000 4.0999999999999996 -4.2425524155069788E-003 1.1999566625550775E-003 3.1799969435288800
1 0.0000000000000000 0.0000000000000000 6.1499999999999995 -4.4445363995078572E-003 1.3233407006293255E-003 3.1799966186877588
1 0.0000000000000000 0.0000000000000000 8.1999999999999993 6.6818216349203447E-003 -1.7172525601967116E-003 3.1799925163910827
ITEM: TIMESTEP
0.45000000000000007
ITEM: NUMBER OF ATOMS
5
ITEM: BOX BOUNDS xy xz yz
0.0000000000000000 20.500000000000000 0.0000000000000000
0.0000000000000000 20.500000000000000 6.9169022953564281E-310
0.0000000000000000 10.250000000000000 0.0000000000000000
ITEM: ATOMS type x y z vx vy vz
1 0.0000000000000000 0.0000000000000000 0.0000000000000000 5.0164659360811138E-002 1.1117556002890009E-003 3.1796041060092217
1 0.0000000000000000 0.0000000000000000 2.0499999999999998 7.4170541512039063E-003 -1.9226217474236568E-003 3.1799907689855527
1 0.0000000000000000 0.0000000000000000 4.0999999999999996 -4.6809271642661741E-003 1.3170348967209806E-003 3.1799962821267527
1 0.0000000000000000 0.0000000000000000 6.1499999999999995 -4.9011299964601207E-003 1.4499055091150442E-003 3.1799958925600471
1 0.0000000000000000 0.0000000000000000 8.1999999999999993 7.3031991262636400E-003 -1.8383662491110186E-003 3.1799910823290154
ITEM: TIMESTEP
0.50000000000000000
ITEM: NUMBER OF ATOMS
5
ITEM: BOX BOUNDS xy xz yz
0.0000000000000000 20.500000000000000 0.0000000000000000
0.0000000000000000 20.500000000000000 6.9169022953564281E-310
0.0000000000000000 10.250000000000000 0.0000000000000000
ITEM: ATOMS type x y z vx vy vz
1 0.0000000000000000 0.0000000000000000 0.0000000000000000 4.9818369984103279E-002 1.1118667520526565E-003 3.1796095505210160
1 0.0000000000000000 0.0000000000000000 2.0499999999999998 8.0297656913277012E-003 -2.0426386965084311E-003 3.1799892060335826
1 0.0000000000000000 0.0000000000000000 4.0999999999999996 -5.1139430869333218E-003 1.4321530433669667E-003 3.1799955654880669
1 0.0000000000000000 0.0000000000000000 6.1499999999999995 -5.3516556181917325E-003 1.5739311337515233E-003 3.1799951073111616
1 0.0000000000000000 0.0000000000000000 8.1999999999999993 7.9036183787735189E-003 -1.9490110696485101E-003 3.1799895808276446
ITEM: TIMESTEP
0.55000000000000004
ITEM: NUMBER OF ATOMS
5
ITEM: BOX BOUNDS xy xz yz
0.0000000000000000 20.500000000000000 0.0000000000000000
0.0000000000000000 20.500000000000000 6.9169022953564281E-310
0.0000000000000000 10.250000000000000 0.0000000000000000
ITEM: ATOMS type x y z vx vy vz
1 0.0000000000000000 0.0000000000000000 0.0000000000000000 4.9501941757384316E-002 1.0961420767341004E-003 3.1796144980539389
1 0.0000000000000000 0.0000000000000000 2.0499999999999998 8.6224660139362398E-003 -2.1531109654634728E-003 3.1799875812954053
1 0.0000000000000000 0.0000000000000000 4.0999999999999996 -5.5419124865109916E-003 1.5456129129402408E-003 3.1799947953238412
1 0.0000000000000000 0.0000000000000000 6.1499999999999995 -5.7964601615928327E-003 1.6957786480681690E-003 3.1799942649923700
1 0.0000000000000000 0.0000000000000000 8.1999999999999993 8.4838900880675489E-003 -2.0499797032695181E-003 3.1799880221774726
ITEM: TIMESTEP
0.59999999999999998
ITEM: NUMBER OF ATOMS
5
ITEM: BOX BOUNDS xy xz yz
0.0000000000000000 20.500000000000000 0.0000000000000000
0.0000000000000000 20.500000000000000 6.9169022953564281E-310
0.0000000000000000 10.250000000000000 0.0000000000000000
ITEM: ATOMS type x y z vx vy vz
1 0.0000000000000000 0.0000000000000000 0.0000000000000000 4.9214434363862178E-002 1.0654691331053242E-003 3.1796189715476562
1 0.0000000000000000 0.0000000000000000 2.0499999999999998 9.1959353093166163E-003 -2.2547806563055499E-003 3.1799859041728422
1 0.0000000000000000 0.0000000000000000 4.0999999999999996 -5.9651390377857940E-003 1.6577018312681807E-003 3.1799939731296507
1 0.0000000000000000 0.0000000000000000 6.1499999999999995 -6.2358810123775395E-003 1.8157908950110423E-003 3.1799933673973939
1 0.0000000000000000 0.0000000000000000 8.1999999999999993 9.0448007113970632E-003 -2.1420202628566055E-003 3.1799864155887980
ITEM: TIMESTEP
0.65000000000000002
ITEM: NUMBER OF ATOMS
5
ITEM: BOX BOUNDS xy xz yz
0.0000000000000000 20.500000000000000 0.0000000000000000
0.0000000000000000 20.500000000000000 6.9169022953564281E-310
0.0000000000000000 10.250000000000000 0.0000000000000000
ITEM: ATOMS type x y z vx vy vz
1 0.0000000000000000 0.0000000000000000 0.0000000000000000 4.8954937273266746E-002 1.0206815342905710E-003 3.1796229921683770
1 0.0000000000000000 0.0000000000000000 2.0499999999999998 9.7509302796053438E-003 -2.3483486270604562E-003 3.1799841830766074
1 0.0000000000000000 0.0000000000000000 4.0999999999999996 -6.3839179627663608E-003 1.7686933972189732E-003 3.1799931001992929
1 0.0000000000000000 0.0000000000000000 6.1499999999999995 -6.6702462105749597E-003 1.9342934559771670E-003 3.1799924160796844
1 0.0000000000000000 0.0000000000000000 8.1999999999999993 9.5871129118774868E-003 -2.2258385620406856E-003 3.1799847692887959
ITEM: TIMESTEP
0.69999999999999996
ITEM: NUMBER OF ATOMS
5
ITEM: BOX BOUNDS xy xz yz
0.0000000000000000 20.500000000000000 0.0000000000000000
0.0000000000000000 20.500000000000000 6.9169022953564281E-310
0.0000000000000000 10.250000000000000 0.0000000000000000
ITEM: ATOMS type x y z vx vy vz
1 0.0000000000000000 0.0000000000000000 0.0000000000000000 4.8722569157137414E-002 9.6256164917082280E-004 3.1796265794476253
1 0.0000000000000000 0.0000000000000000 2.0499999999999998 1.0288184596983401E-002 -2.4344765924849882E-003 3.1799824255145515
1 0.0000000000000000 0.0000000000000000 4.0999999999999996 -6.7985362250983601E-003 1.8788482046884266E-003 3.1799921776373323
1 0.0000000000000000 0.0000000000000000 6.1499999999999995 -7.0998746405195635E-003 2.0515955848208443E-003 3.1799914123682216
1 0.0000000000000000 0.0000000000000000 8.1999999999999993 1.0111566028503246E-002 -2.3021002887594049E-003 3.1799830906101869
ITEM: TIMESTEP
0.74999999999999989
ITEM: NUMBER OF ATOMS
5
ITEM: BOX BOUNDS xy xz yz
0.0000000000000000 20.500000000000000 0.0000000000000000
0.0000000000000000 20.500000000000000 6.9169022953564281E-310
0.0000000000000000 10.250000000000000 0.0000000000000000
ITEM: ATOMS type x y z vx vy vz
1 0.0000000000000000 0.0000000000000000 0.0000000000000000 4.8516477223803318E-002 8.9184320560783102E-004 3.1796297514102947
1 0.0000000000000000 0.0000000000000000 2.0499999999999998 1.0808409387519084E-002 -2.5137891277849395E-003 3.1799806381723021
1 0.0000000000000000 0.0000000000000000 4.0999999999999996 -7.2092727000453022E-003 1.9884145228396765E-003 3.1799912063706759
1 0.0000000000000000 0.0000000000000000 6.1499999999999995 -7.5250761580915168E-003 2.1679910541269848E-003 3.1799903573821715
1 0.0000000000000000 0.0000000000000000 8.1999999999999993 1.0618876548169356E-002 -2.3714330742856784E-003 3.1799813860722574
ITEM: TIMESTEP
0.80000000000000004
ITEM: NUMBER OF ATOMS
5
ITEM: BOX BOUNDS xy xz yz
0.0000000000000000 20.500000000000000 0.0000000000000000
0.0000000000000000 20.500000000000000 6.9169022953564281E-310
0.0000000000000000 10.250000000000000 0.0000000000000000
ITEM: ATOMS type x y z vx vy vz
1 0.0000000000000000 0.0000000000000000 0.0000000000000000 4.8335836755844797E-002 8.0921368340910061E-004 3.1796325246887154
1 0.0000000000000000 0.0000000000000000 2.0499999999999998 1.1312293705713470E-002 -2.5868755788170140E-003 3.1799788269870359
1 0.0000000000000000 0.0000000000000000 4.0999999999999996 -7.6163983790645011E-003 2.0976289601352996E-003 3.1799901871591492
1 0.0000000000000000 0.0000000000000000 6.1499999999999995 -7.9461518638994384E-003 2.2837590767120384E-003 3.1799892520439474
1 0.0000000000000000 0.0000000000000000 8.1999999999999993 1.1109738590174766E-002 -2.4344284684166880E-003 3.1799796614548490
ITEM: TIMESTEP
0.85000000000000009
ITEM: NUMBER OF ATOMS
5
ITEM: BOX BOUNDS xy xz yz
0.0000000000000000 20.500000000000000 0.0000000000000000
0.0000000000000000 20.500000000000000 6.9169022953564281E-310
0.0000000000000000 10.250000000000000 0.0000000000000000
ITEM: ATOMS type x y z vx vy vz
1 0.0000000000000000 0.0000000000000000 0.0000000000000000 4.8179850424177530E-002 7.1531668591734031E-004 3.1796349146301606
1 0.0000000000000000 0.0000000000000000 2.0499999999999998 1.1800505025125058E-002 -2.6542918841409055E-003 3.1799769972148755
1 0.0000000000000000 0.0000000000000000 4.0999999999999996 -8.0201765362778749E-003 2.2067170819985273E-003 3.1799891206052973
1 0.0000000000000000 0.0000000000000000 6.1499999999999995 -8.3633941820230994E-003 2.3991650020575850E-003 3.1799880970917234
1 0.0000000000000000 0.0000000000000000 8.1999999999999993 1.1584824390365662E-002 -2.4916438206853062E-003 3.1799779218659556
ITEM: TIMESTEP
0.90000000000000013
ITEM: NUMBER OF ATOMS
5
ITEM: BOX BOUNDS xy xz yz
0.0000000000000000 20.500000000000000 0.0000000000000000
0.0000000000000000 20.500000000000000 6.9169022953564281E-310
0.0000000000000000 10.250000000000000 0.0000000000000000
ITEM: ATOMS type x y z vx vy vz
1 0.0000000000000000 0.0000000000000000 0.0000000000000000 4.8047747741692029E-002 6.1075414072668435E-004 3.1796369353931491
1 0.0000000000000000 0.0000000000000000 2.0499999999999998 1.2273689721447560E-002 -2.7165623097068748E-003 3.1799751534925287
1 0.0000000000000000 0.0000000000000000 4.0999999999999996 -8.4208629421075182E-003 2.3158940203545828E-003 3.1799880071632662
1 0.0000000000000000 0.0000000000000000 6.1499999999999995 -8.7770871090272155E-003 2.5144611458395080E-003 3.1799868930904442
1 0.0000000000000000 0.0000000000000000 8.1999999999999993 1.2044784776492123E-002 -2.5436040628318631E-003 3.1799761718035038
ITEM: TIMESTEP
0.95000000000000018
ITEM: NUMBER OF ATOMS
5
ITEM: BOX BOUNDS xy xz yz
0.0000000000000000 20.500000000000000 0.0000000000000000
0.0000000000000000 20.500000000000000 6.9169022953564281E-310
0.0000000000000000 10.250000000000000 0.0000000000000000
ITEM: ATOMS type x y z vx vy vz
1 0.0000000000000000 0.0000000000000000 0.0000000000000000 4.7938784428410354E-002 4.9608843123018524E-004 3.1796386000367711
1 0.0000000000000000 0.0000000000000000 2.0499999999999998 1.2732473561724283E-002 -2.7741811044267183E-003 3.1799732998936001
1 0.0000000000000000 0.0000000000000000 4.0999999999999996 -8.8187060186594030E-003 2.4253650308573697E-003 3.1799868471471120
1 0.0000000000000000 0.0000000000000000 6.1499999999999995 -9.1875063961829005E-003 2.6298875056299711E-003 3.1799856404420948
1 0.0000000000000000 0.0000000000000000 8.1999999999999993 1.2490249690341584E-002 -2.5908034366210358E-003 3.1799744152115803
ITEM: TIMESTEP
1.0000000000000002
ITEM: NUMBER OF ATOMS
5
ITEM: BOX BOUNDS xy xz yz
0.0000000000000000 20.500000000000000 0.0000000000000000
0.0000000000000000 20.500000000000000 6.9169022953564281E-310
0.0000000000000000 10.250000000000000 0.0000000000000000
ITEM: ATOMS type x y z vx vy vz
1 0.0000000000000000 0.0000000000000000 0.0000000000000000 4.7852241829237419E-002 3.7184440471604169E-004 3.1796399206016486
1 0.0000000000000000 0.0000000000000000 2.0499999999999998 1.3177462189327612E-002 -2.8276140792586214E-003 3.1799714399800605
1 0.0000000000000000 0.0000000000000000 4.0999999999999996 -9.2139470601718901E-003 2.5353260529550272E-003 3.1799856407382383
1 0.0000000000000000 0.0000000000000000 6.1499999999999995 -9.5949197366654339E-003 2.7456724524963175E-003 3.1799843393950891
1 0.0000000000000000 0.0000000000000000 8.1999999999999993 1.2921828660526401E-002 -2.6337071075751262E-003 3.1799726555319539
ITEM: TIMESTEP
1.0500000000000003
ITEM: NUMBER OF ATOMS
5
ITEM: BOX BOUNDS xy xz yz
0.0000000000000000 20.500000000000000 0.0000000000000000
0.0000000000000000 20.500000000000000 6.9169022953564281E-310
0.0000000000000000 10.250000000000000 0.0000000000000000
ITEM: ATOMS type x y z vx vy vz
1 0.0000000000000000 0.0000000000000000 0.0000000000000000 4.7787426262350073E-002 2.3851131140621536E-004 3.1796409081850077
1 0.0000000000000000 0.0000000000000000 2.0499999999999998 1.3609241609890670E-002 -2.8773001094410900E-003 3.1799695768492624
1 0.0000000000000000 0.0000000000000000 4.0999999999999996 -9.6068203723889828E-003 2.6459642094392114E-003 3.1799843879924539
1 0.0000000000000000 0.0000000000000000 6.1499999999999995 -9.9995869515571538E-003 2.8620333887787617E-003 3.1799829900528827
1 0.0000000000000000 0.0000000000000000 8.1999999999999993 1.3340111304862311E-002 -2.6727527205744010E-003 3.1799708957509778
ITEM: TIMESTEP
1.1000000000000003
ITEM: NUMBER OF ATOMS
5
ITEM: BOX BOUNDS xy xz yz
0.0000000000000000 20.500000000000000 0.0000000000000000
0.0000000000000000 20.500000000000000 6.9169022953564281E-310
0.0000000000000000 10.250000000000000 0.0000000000000000
ITEM: ATOMS type x y z vx vy vz
1 0.0000000000000000 0.0000000000000000 0.0000000000000000 4.7743668475147827E-002 9.6544612266391452E-005 3.1796415730078254
1 0.0000000000000000 0.0000000000000000 2.0499999999999998 1.4028378673520246E-002 -2.9236525831898303E-003 3.1799677131768744
1 0.0000000000000000 0.0000000000000000 4.0999999999999996 -9.9975534956206584E-003 2.7574583202548690E-003 3.1799830888461846
1 0.0000000000000000 0.0000000000000000 6.1499999999999995 -1.0401760187994468E-002 2.9791773810755617E-003 3.1799815923818038
1 0.0000000000000000 0.0000000000000000 8.1999999999999993 1.3745667825544200E-002 -2.7083518767949703E-003 3.1799691384424076
ITEM: TIMESTEP
1.1500000000000004
ITEM: NUMBER OF ATOMS
5
ITEM: BOX BOUNDS xy xz yz
0.0000000000000000 20.500000000000000 0.0000000000000000
0.0000000000000000 20.500000000000000 6.9169022953564281E-310
0.0000000000000000 10.250000000000000 0.0000000000000000
ITEM: ATOMS type x y z vx vy vz
1 0.0000000000000000 0.0000000000000000 0.0000000000000000 4.7720322995399925E-002 -5.3632263751042752E-005 3.1796419244777860
1 0.0000000000000000 0.0000000000000000 2.0499999999999998 1.4435421566247509E-002 -2.9670607678379131E-003 3.1799658512560480
1 0.0000000000000000 0.0000000000000000 4.0999999999999996 -1.0386367381427593E-002 2.8699793722959349E-003 3.1799817431222825
1 0.0000000000000000 0.0000000000000000 6.1499999999999995 -1.0801684113907846E-002 3.0973017612552834E-003 3.1799801462182264
1 0.0000000000000000 0.0000000000000000 8.1999999999999993 1.4139049499117580E-002 -2.7408915378517116E-003 3.1799673858064716
ITEM: TIMESTEP
1.2000000000000004
ITEM: NUMBER OF ATOMS
5
ITEM: BOX BOUNDS xy xz yz
0.0000000000000000 20.500000000000000 0.0000000000000000
0.0000000000000000 20.500000000000000 6.9169022953564281E-310
0.0000000000000000 10.250000000000000 0.0000000000000000
ITEM: ATOMS type x y z vx vy vz
1 0.0000000000000000 0.0000000000000000 0.0000000000000000 4.7716767530476573E-002 -2.1162626119986777E-004 3.1796419712462547
1 0.0000000000000000 0.0000000000000000 2.0499999999999998 1.4830900296803206E-002 -3.0078911184446698E-003 3.1799639930331609
1 0.0000000000000000 0.0000000000000000 4.0999999999999996 -1.0773476532484814E-002 2.9836909533469663E-003 3.1799803505354718
1 0.0000000000000000 0.0000000000000000 6.1499999999999995 -1.1199596104242928E-002 3.2165946928117972E-003 3.1799786512751425
1 0.0000000000000000 0.0000000000000000 8.1999999999999993 1.4520789167606327E-002 -2.7707353647149278E-003 3.1799656397054816
ITEM: TIMESTEP
1.2500000000000007
ITEM: NUMBER OF ATOMS
5
ITEM: BOX BOUNDS xy xz yz
0.0000000000000000 20.500000000000000 0.0000000000000000
0.0000000000000000 20.500000000000000 6.9169022953564281E-310
0.0000000000000000 10.250000000000000 0.0000000000000000
ITEM: ATOMS type x y z vx vy vz
1 0.0000000000000000 0.0000000000000000 0.0000000000000000 4.7732402382183889E-002 -3.7707312566895751E-004 3.1796417212602246
1 0.0000000000000000 0.0000000000000000 2.0499999999999998 1.5215327183698286E-002 -3.0464885121652516E-003 3.1799621401404194
1 0.0000000000000000 0.0000000000000000 4.0999999999999996 -1.1159089209415655E-002 3.0987496948941041E-003 3.1799789106971050
1 0.0000000000000000 0.0000000000000000 6.1499999999999995 -1.1595726447076078E-002 3.3372357264109778E-003 3.1799771071480789
1 0.0000000000000000 0.0000000000000000 8.1999999999999993 1.4891401726329821E-002 -2.7982249918719572E-003 3.1799639016962953
ITEM: TIMESTEP
1.3000000000000007
ITEM: NUMBER OF ATOMS
5
ITEM: BOX BOUNDS xy xz yz
0.0000000000000000 20.500000000000000 0.0000000000000000
0.0000000000000000 20.500000000000000 6.9169022953564281E-310
0.0000000000000000 10.250000000000000 0.0000000000000000
ITEM: ATOMS type x y z vx vy vz
1 0.0000000000000000 0.0000000000000000 0.0000000000000000 4.7766649848028635E-002 -5.4963590109545436E-004 3.1796411818100916
1 0.0000000000000000 0.0000000000000000 2.0499999999999998 1.5589197325377507E-002 -3.0831774175679250E-003 3.1799602939256584
1 0.0000000000000000 0.0000000000000000 4.0999999999999996 -1.1543407634883282E-002 3.2153056930710631E-003 3.1799774231194595
1 0.0000000000000000 0.0000000000000000 6.1499999999999995 -1.1990298491571426E-002 3.4593962896158799E-003 3.1799755133207217
1 0.0000000000000000 0.0000000000000000 8.1999999999999993 1.5251384604615285E-002 -2.8236812380846533E-003 3.1799621730599115
ITEM: TIMESTEP
1.3500000000000008
ITEM: NUMBER OF ATOMS
5
ITEM: BOX BOUNDS xy xz yz
0.0000000000000000 20.500000000000000 0.0000000000000000
0.0000000000000000 20.500000000000000 6.9169022953564281E-310
0.0000000000000000 10.250000000000000 0.0000000000000000
ITEM: ATOMS type x y z vx vy vz
1 0.0000000000000000 0.0000000000000000 0.0000000000000000 4.7818953637010553E-002 -7.2900350369039537E-004 3.1796403595732268
1 0.0000000000000000 0.0000000000000000 2.0499999999999998 1.5952989085354419E-002 -3.1182630340517606E-003 3.1799584554793929
1 0.0000000000000000 0.0000000000000000 4.0999999999999996 -1.1926628117489469E-002 3.3335028791021972E-003 3.1799758872199502
1 0.0000000000000000 0.0000000000000000 6.1499999999999995 -1.2383528927901243E-002 3.5832402362802043E-003 3.1799738691694777
1 0.0000000000000000 0.0000000000000000 8.1999999999999993 1.5601218248091018E-002 -2.8474052616615873E-003 3.1799604548284020
ITEM: TIMESTEP
1.4000000000000008
ITEM: NUMBER OF ATOMS
5
ITEM: BOX BOUNDS xy xz yz
0.0000000000000000 20.500000000000000 0.0000000000000000
0.0000000000000000 20.500000000000000 6.9169022953564281E-310
0.0000000000000000 10.250000000000000 0.0000000000000000
ITEM: ATOMS type x y z vx vy vz
1 0.0000000000000000 0.0000000000000000 0.0000000000000000 4.7888778260865857E-002 -9.1488935495757484E-004 3.1796392606542891
1 0.0000000000000000 0.0000000000000000 2.0499999999999998 1.6307164551685880E-002 -3.1520323423411207E-003 3.1799566256595999
1 0.0000000000000000 0.0000000000000000 4.0999999999999996 -1.2308941242155515E-002 3.4534794003830615E-003 3.1799743023247111
1 0.0000000000000000 0.0000000000000000 6.1499999999999995 -1.2775627860287235E-002 3.7089242446199360E-003 3.1799721739684643
1 0.0000000000000000 0.0000000000000000 8.1999999999999993 1.5941366583972067E-002 -2.8696796523623109E-003 3.1799587478094953
ITEM: TIMESTEP
1.4500000000000008
ITEM: NUMBER OF ATOMS
5
ITEM: BOX BOUNDS xy xz yz
0.0000000000000000 20.500000000000000 0.0000000000000000
0.0000000000000000 20.500000000000000 6.9169022953564281E-310
0.0000000000000000 10.250000000000000 0.0000000000000000
ITEM: ATOMS type x y z vx vy vz
1 0.0000000000000000 0.0000000000000000 0.0000000000000000 4.7975608493289988E-002 -1.1070301042457936E-003 3.1796378906212022
1 0.0000000000000000 0.0000000000000000 2.0499999999999998 1.6652169987557267E-002 -3.1847551327589762E-003 3.1799548051142867
1 0.0000000000000000 0.0000000000000000 4.0999999999999996 -1.2690531972624328E-002 3.5753679513428655E-003 3.1799726676722031
1 0.0000000000000000 0.0000000000000000 6.1499999999999995 -1.3166799064255080E-002 3.8365983074147474E-003 3.1799704268932798
1 0.0000000000000000 0.0000000000000000 8.1999999999999993 1.6272277496583117E-002 -2.8907694795893141E-003 3.1799570526088710
ITEM: TIMESTEP
1.5000000000000009
ITEM: NUMBER OF ATOMS
5
ITEM: BOX BOUNDS xy xz yz
0.0000000000000000 20.500000000000000 0.0000000000000000
0.0000000000000000 20.500000000000000 6.9169022953564281E-310
0.0000000000000000 10.250000000000000 0.0000000000000000
ITEM: ATOMS type x y z vx vy vz
1 0.0000000000000000 0.0000000000000000 0.0000000000000000 4.8078948787881444E-002 -1.3051843973222240E-003 3.1796362545387398
1 0.0000000000000000 0.0000000000000000 2.0499999999999998 1.6988436285246815E-002 -3.2166849518787486E-003 3.1799529943020373
1 0.0000000000000000 0.0000000000000000 4.0999999999999996 -1.3071580067660463E-002 3.6992962040098146E-003 3.1799709824151123
1 0.0000000000000000 0.0000000000000000 6.1499999999999995 -1.3557240158126978E-002 3.9664061509438707E-003 3.1799686270247287
1 0.0000000000000000 0.0000000000000000 8.1999999999999993 1.6594383279382372E-002 -2.9109232781107000E-003 3.1799553696505320
ITEM: TIMESTEP
1.5500000000000009
ITEM: NUMBER OF ATOMS
5
ITEM: BOX BOUNDS xy xz yz
0.0000000000000000 20.500000000000000 0.0000000000000000
0.0000000000000000 20.500000000000000 6.9169022953564281E-310
0.0000000000000000 10.250000000000000 0.0000000000000000
ITEM: ATOMS type x y z vx vy vz
1 0.0000000000000000 0.0000000000000000 0.0000000000000000 4.8198322708613961E-002 -1.5091317081237664E-003 3.1796343569991765
1 0.0000000000000000 0.0000000000000000 2.0499999999999998 1.7316379413225780E-002 -3.2480600297057202E-003 3.1799511935106883
1 0.0000000000000000 0.0000000000000000 4.0999999999999996 -1.3452259864715901E-002 3.8253869908274670E-003 3.1799692456246977
1 0.0000000000000000 0.0000000000000000 6.1499999999999995 -1.3947142771179189E-002 4.0984856287337298E-003 3.1799667733522101
1 0.0000000000000000 0.0000000000000000 8.1999999999999993 1.6908092092706096E-002 -2.9303669383013648E-003 3.1799536992496282
ITEM: TIMESTEP
1.6000000000000010
ITEM: NUMBER OF ATOMS
5
ITEM: BOX BOUNDS xy xz yz
0.0000000000000000 20.500000000000000 0.0000000000000000
0.0000000000000000 20.500000000000000 6.9169022953564281E-310
0.0000000000000000 10.250000000000000 0.0000000000000000
ITEM: ATOMS type x y z vx vy vz