ITEM: TIMESTEP
0.0000000000000000
ITEM: NUMBER OF ATOMS
2
ITEM: BOX BOUNDS xy xz yz
-1.2500000000000000 1.2500000000000000 0.0000000000000000
0.0000000000000000 2.5000000000000000 4.6880926611872218E-310
0.0000000000000000 2.5000000000000000 0.0000000000000000
ITEM: ATOMS type x y z vx vy vz
1 -1.2500000000000000 0.0000000000000000 0.0000000000000000 -0.55170917187290547 -2.6423423108702757E-002 3.1316639015677485
1 1.2500000000000000 0.0000000000000000 0.0000000000000000 0.55186063348969150 2.6427177293631875E-002 3.1316371829291860
ITEM: TIMESTEP
5.0000000000000003E-002
ITEM: NUMBER OF ATOMS
2
ITEM: BOX BOUNDS xy xz yz
-1.2500000000000000 1.2500000000000000 0.0000000000000000
0.0000000000000000 2.5000000000000000 4.6880926612860349E-310
0.0000000000000000 2.5000000000000000 0.0000000000000000
ITEM: ATOMS type x y z vx vy vz
1 -1.2500000000000000 0.0000000000000000 0.0000000000000000 -0.54993119273347346 -5.2803368589133107E-002 3.1316429374250792
1 1.2500000000000000 0.0000000000000000 0.0000000000000000 0.55023382206482796 5.2818146722793120E-002 3.1315895300043239
ITEM: TIMESTEP
0.10000000000000001
ITEM: NUMBER OF ATOMS
2
ITEM: BOX BOUNDS xy xz yz
-1.2500000000000000 1.2500000000000000 0.0000000000000000
0.0000000000000000 2.5000000000000000 4.6880926653065435E-310
0.0000000000000000 2.5000000000000000 0.0000000000000000
ITEM: ATOMS type x y z vx vy vz
1 -1.2500000000000000 0.0000000000000000 0.0000000000000000 -0.54687037361708746 -7.9078284564698675E-002 3.1316256831508786
1 1.2500000000000000 0.0000000000000000 0.0000000000000000 0.54732350475020364 7.9111303444859518E-002 3.1315456858898307
ITEM: TIMESTEP
0.15000000000000002
ITEM: NUMBER OF ATOMS
2
ITEM: BOX BOUNDS xy xz yz
-1.2500000000000000 1.2500000000000000 0.0000000000000000
0.0000000000000000 2.5000000000000000 4.6880926611872218E-310
0.0000000000000000 2.5000000000000000 0.0000000000000000
ITEM: ATOMS type x y z vx vy vz
1 -1.2500000000000000 0.0000000000000000 0.0000000000000000 -0.54253280345740251 -0.10518678405106766 3.1316120285938425
1 1.2500000000000000 0.0000000000000000 0.0000000000000000 0.54313542079596233 0.10524522205362179 3.1315056056011903
ITEM: TIMESTEP
0.20000000000000001
ITEM: NUMBER OF ATOMS
2
ITEM: BOX BOUNDS xy xz yz
-1.2500000000000000 1.2500000000000000 0.0000000000000000
0.0000000000000000 2.5000000000000000 4.6880926612860349E-310
0.0000000000000000 2.5000000000000000 0.0000000000000000
ITEM: ATOMS type x y z vx vy vz
1 -1.2500000000000000 0.0000000000000000 0.0000000000000000 -0.53692756560824251 -0.13106782194109373 3.1316018289912941
1 1.2500000000000000 0.0000000000000000 0.0000000000000000 0.53767830291865393 0.13115880210518904 3.1314692096843051
ITEM: TIMESTEP
0.25000000000000006
ITEM: NUMBER OF ATOMS
2
ITEM: BOX BOUNDS xy xz yz
-1.2500000000000000 1.2500000000000000 0.0000000000000000
0.0000000000000000 2.5000000000000000 4.6880926653065435E-310
0.0000000000000000 2.5000000000000000 0.0000000000000000
ITEM: ATOMS type x y z vx vy vz
1 -1.2500000000000000 0.0000000000000000 0.0000000000000000 -0.53006671674289940 -0.15666083978522249 3.1315949062864421
1 1.2500000000000000 0.0000000000000000 0.0000000000000000 0.53096385876478847 0.15679141271182179 3.1314363850452773
ITEM: TIMESTEP
0.30000000000000004
ITEM: NUMBER OF ATOMS
2
ITEM: BOX BOUNDS xy xz yz
-1.2500000000000000 1.2500000000000000 0.0000000000000000
0.0000000000000000 2.5000000000000000 4.6880926611872218E-310
0.0000000000000000 2.5000000000000000 0.0000000000000000
ITEM: ATOMS type x y z vx vy vz
1 -1.2500000000000000 0.0000000000000000 0.0000000000000000 -0.52196525688310647 -0.18190590547456267 3.1315910512326530
1 1.2500000000000000 0.0000000000000000 0.0000000000000000 0.52300674595231289 0.18208303625036215 3.1314069859407003
ITEM: TIMESTEP
0.35000000000000009
ITEM: NUMBER OF ATOMS
2
ITEM: BOX BOUNDS xy xz yz
-1.2500000000000000 1.2500000000000000 0.0000000000000000
0.0000000000000000 2.5000000000000000 4.6880926612860349E-310
0.0000000000000000 2.5000000000000000 0.0000000000000000
ITEM: ATOMS type x y z vx vy vz
1 -1.2500000000000000 0.0000000000000000 0.0000000000000000 -0.51264110198366364 -0.20674386975161363 3.1315900231155904
1 1.2500000000000000 0.0000000000000000 0.0000000000000000 0.51382453759718139 0.20697441029064570 3.1313808356774300
ITEM: TIMESTEP
0.40000000000000013
ITEM: NUMBER OF ATOMS
2
ITEM: BOX BOUNDS xy xz yz
-1.2500000000000000 1.2500000000000000 0.0000000000000000
0.0000000000000000 2.5000000000000000 4.6880926653065435E-310
0.0000000000000000 2.5000000000000000 0.0000000000000000
ITEM: ATOMS type x y z vx vy vz
1 -1.2500000000000000 0.0000000000000000 0.0000000000000000 -0.50211503438258231 -0.23111648440369528 3.1315915542873496
1 1.2500000000000000 0.0000000000000000 0.0000000000000000 0.50343768459049087 0.23140716815208323 3.1313577279292120
ITEM: TIMESTEP
0.45000000000000012
ITEM: NUMBER OF ATOMS
2
ITEM: BOX BOUNDS xy xz yz
-1.2500000000000000 1.2500000000000000 0.0000000000000000
0.0000000000000000 2.5000000000000000 4.6880926611872218E-310
0.0000000000000000 2.5000000000000000 0.0000000000000000
ITEM: ATOMS type x y z vx vy vz
1 -1.2500000000000000 0.0000000000000000 0.0000000000000000 -0.49041066034617908 -0.25496655404888308 3.1315953507015024
1 1.2500000000000000 0.0000000000000000 0.0000000000000000 0.49186946438988022 0.25532397618235475 3.1313374294679970
ITEM: TIMESTEP
0.50000000000000022
ITEM: NUMBER OF ATOMS
2
ITEM: BOX BOUNDS xy xz yz
-1.2500000000000000 1.2500000000000000 0.0000000000000000
0.0000000000000000 2.5000000000000000 4.6880926612860349E-310
0.0000000000000000 2.5000000000000000 0.0000000000000000
ITEM: ATOMS type x y z vx vy vz
1 -1.2500000000000000 0.0000000000000000 0.0000000000000000 -0.47755435550770275 -0.27823806798580775 3.1316010944976935
1 1.2500000000000000 0.0000000000000000 0.0000000000000000 0.47914593322395810 0.27866866990153066 3.1313196813947712
ITEM: TIMESTEP
0.55000000000000016
ITEM: NUMBER OF ATOMS
2
ITEM: BOX BOUNDS xy xz yz
-1.2500000000000000 1.2500000000000000 0.0000000000000000
0.0000000000000000 2.5000000000000000 4.6880926653065435E-310
0.0000000000000000 2.5000000000000000 0.0000000000000000
ITEM: ATOMS type x y z vx vy vz
1 -1.2500000000000000 0.0000000000000000 0.0000000000000000 -0.46357519820553056 -0.30087632972739953 3.1316084477179578
1 1.2500000000000000 0.0000000000000000 0.0000000000000000 0.46529586166806686 0.30138638582959731 3.1313042023334532
ITEM: TIMESTEP
0.60000000000000020
ITEM: NUMBER OF ATOMS
2
ITEM: BOX BOUNDS xy xz yz
-1.2500000000000000 1.2500000000000000 0.0000000000000000
0.0000000000000000 2.5000000000000000 4.6880926611872218E-310
0.0000000000000000 2.5000000000000000 0.0000000000000000
ITEM: ATOMS type x y z vx vy vz
1 -1.2500000000000000 0.0000000000000000 0.0000000000000000 -0.44850491961329980 -0.32282809405341895 3.1316170517437971
1 1.2500000000000000 0.0000000000000000 0.0000000000000000 0.45035066947760205 0.32342369133405224 3.1312906908150397
ITEM: TIMESTEP
0.65000000000000024
ITEM: NUMBER OF ATOMS
2
ITEM: BOX BOUNDS xy xz yz
-1.2500000000000000 1.2500000000000000 0.0000000000000000
0.0000000000000000 2.5000000000000000 4.6880926612860349E-310
0.0000000000000000 2.5000000000000000 0.0000000000000000
ITEM: ATOMS type x y z vx vy vz
1 -1.2500000000000000 0.0000000000000000 0.0000000000000000 -0.43237780509162982 -0.34404168031751986 3.1316265351839840
1 1.2500000000000000 0.0000000000000000 0.0000000000000000 0.43434435185276493 0.34472870949324141 3.1312788283486865
ITEM: TIMESTEP
0.70000000000000029
ITEM: NUMBER OF ATOMS
2
ITEM: BOX BOUNDS xy xz yz
-1.2500000000000000 1.2500000000000000 0.0000000000000000
0.0000000000000000 2.5000000000000000 4.6880926653065435E-310
0.0000000000000000 2.5000000000000000 0.0000000000000000
ITEM: ATOMS type x y z vx vy vz
1 -1.2500000000000000 0.0000000000000000 0.0000000000000000 -0.41523063097139079 -0.36446710155028911 3.1316365138678908
1 1.2500000000000000 0.0000000000000000 0.0000000000000000 0.41731340155620239 0.36525124151839011 3.1312682822541520
ITEM: TIMESTEP
0.75000000000000033
ITEM: NUMBER OF ATOMS
2
ITEM: BOX BOUNDS xy xz yz
-1.2500000000000000 1.2500000000000000 0.0000000000000000
0.0000000000000000 2.5000000000000000 4.6880926611872218E-310
0.0000000000000000 2.5000000000000000 0.0000000000000000
ITEM: ATOMS type x y z vx vy vz
1 -1.2500000000000000 0.0000000000000000 0.0000000000000000 -0.39710257513512670 -0.38405617976588047 3.1316465949408614
1 1.2500000000000000 0.0000000000000000 0.0000000000000000 0.39929672351544293 0.38494288431735973 3.1312587089544777
ITEM: TIMESTEP
0.80000000000000027
ITEM: NUMBER OF ATOMS
2
ITEM: BOX BOUNDS xy xz yz
-1.2500000000000000 1.2500000000000000 0.0000000000000000
0.0000000000000000 2.5000000000000000 4.6880926612860349E-310
0.0000000000000000 2.5000000000000000 0.0000000000000000
ITEM: ATOMS type x y z vx vy vz
1 -1.2500000000000000 0.0000000000000000 0.0000000000000000 -0.37803512543914825 -0.40276265791159288 3.1316563804680424
1 1.2500000000000000 0.0000000000000000 0.0000000000000000 0.38033554342609005 0.40375714297227261 3.1312497575098748
ITEM: TIMESTEP
0.85000000000000031
ITEM: NUMBER OF ATOMS
2
ITEM: BOX BOUNDS xy xz yz
-1.2500000000000000 1.2500000000000000 0.0000000000000000
0.0000000000000000 2.5000000000000000 4.6880926653065435E-310
0.0000000000000000 2.5000000000000000 0.0000000000000000
ITEM: ATOMS type x y z vx vy vz
1 -1.2500000000000000 0.0000000000000000 0.0000000000000000 -0.35807198369223076 -0.42054230866983999 3.1316654708179410
1 1.2500000000000000 0.0000000000000000 0.0000000000000000 0.36047331417445977 0.42164954056788556 3.1312410725951731
ITEM: TIMESTEP
0.90000000000000024
ITEM: NUMBER OF ATOMS
2
ITEM: BOX BOUNDS xy xz yz
-1.2500000000000000 1.2500000000000000 0.0000000000000000
0.0000000000000000 2.5000000000000000 4.6880926611872218E-310
0.0000000000000000 2.5000000000000000 0.0000000000000000
ITEM: ATOMS type x y z vx vy vz
1 -1.2500000000000000 0.0000000000000000 0.0000000000000000 -0.33725896475224276 -0.43735303706718343 3.1316734682374472
1 1.2500000000000000 0.0000000000000000 0.0000000000000000 0.33975561333341664 0.43857772105501924 3.1312322982817187
ITEM: TIMESTEP
0.95000000000000029
ITEM: NUMBER OF ATOMS
2
ITEM: BOX BOUNDS xy xz yz
-1.2500000000000000 1.2500000000000000 0.0000000000000000
0.0000000000000000 2.5000000000000000 4.6880926612860349E-310
0.0000000000000000 2.5000000000000000 0.0000000000000000
ITEM: ATOMS type x y z vx vy vz
1 -1.2500000000000000 0.0000000000000000 0.0000000000000000 -0.31564388996505005 -0.45315497916243702 3.1316799803919984
1 1.2500000000000000 0.0000000000000000 0.0000000000000000 0.31823003843609321 0.45450154840799478 3.1312230813424478
ITEM: TIMESTEP
1.0000000000000004
ITEM: NUMBER OF ATOMS
2
ITEM: BOX BOUNDS xy xz yz
-1.2500000000000000 1.2500000000000000 0.0000000000000000
0.0000000000000000 2.5000000000000000 4.6880926653065435E-310
0.0000000000000000 2.5000000000000000 0.0000000000000000
ITEM: ATOMS type x y z vx vy vz
1 -1.2500000000000000 0.0000000000000000 0.0000000000000000 -0.29327647624606729 -0.46791059386636080 3.1316846240687015
1 1.2500000000000000 0.0000000000000000 0.0000000000000000 0.29594609607596628 0.46938319956438063 3.1312130748615776
ITEM: TIMESTEP
1.0500000000000003
ITEM: NUMBER OF ATOMS
2
ITEM: BOX BOUNDS xy xz yz
-1.2500000000000000 1.2500000000000000 0.0000000000000000
0.0000000000000000 2.5000000000000000 4.6880926611872218E-310
0.0000000000000000 2.5000000000000000 0.0000000000000000
ITEM: ATOMS type x y z vx vy vz
1 -1.2500000000000000 0.0000000000000000 0.0000000000000000 -0.27020822192263294 -0.48158475122342531 3.1316870284551879
1 1.2500000000000000 0.0000000000000000 0.0000000000000000 0.27295508746821184 0.48318725231333559 3.1312019416554890
ITEM: TIMESTEP
1.1000000000000003
ITEM: NUMBER OF ATOMS
2
ITEM: BOX BOUNDS xy xz yz
-1.2500000000000000 1.2500000000000000 0.0000000000000000
0.0000000000000000 2.5000000000000000 4.6880926612860349E-310
0.0000000000000000 2.5000000000000000 0.0000000000000000
ITEM: ATOMS type x y z vx vy vz
1 -1.2500000000000000 0.0000000000000000 0.0000000000000000 -0.24649228669743933 -0.49414481285020734 3.1316868388349279
1 1.2500000000000000 0.0000000000000000 0.0000000000000000 0.24930999152162447 0.49588076884643734 3.1311893572915306
ITEM: TIMESTEP
1.1500000000000004
ITEM: NUMBER OF ATOMS
2
ITEM: BOX BOUNDS xy xz yz
-1.2500000000000000 1.2500000000000000 0.0000000000000000
0.0000000000000000 2.5000000000000000 4.6880926653065435E-310
0.0000000000000000 2.5000000000000000 0.0000000000000000
ITEM: ATOMS type x y z vx vy vz
1 -1.2500000000000000 0.0000000000000000 0.0000000000000000 -0.22218337086123738 -0.50556071052651019 3.1316837192929730
1 1.2500000000000000 0.0000000000000000 0.0000000000000000 0.22506533994169678 0.50743337021411072 3.1311750138805836
ITEM: TIMESTEP
1.2000000000000004
ITEM: NUMBER OF ATOMS
2
ITEM: BOX BOUNDS xy xz yz
-1.2500000000000000 1.2500000000000000 0.0000000000000000
0.0000000000000000 2.5000000000000000 4.6880926611872218E-310
0.0000000000000000 2.5000000000000000 0.0000000000000000
ITEM: ATOMS type x y z vx vy vz
1 -1.2500000000000000 0.0000000000000000 0.0000000000000000 -0.19733758623140546 -0.51580500929957684 3.1316773571748779
1 1.2500000000000000 0.0000000000000000 0.0000000000000000 0.20027709357438592 0.51781730853804808 3.1311586227413972
ITEM: TIMESTEP
1.2500000000000004
ITEM: NUMBER OF ATOMS
2
ITEM: BOX BOUNDS xy xz yz
-1.2500000000000000 1.2500000000000000 0.0000000000000000
0.0000000000000000 2.5000000000000000 4.6880926612860349E-310
0.0000000000000000 2.5000000000000000 0.0000000000000000
ITEM: ATOMS type x y z vx vy vz
1 -1.2500000000000000 0.0000000000000000 0.0000000000000000 -0.17201232603218944 -0.52485303972877406 3.1316674546286785
1 1.2500000000000000 0.0000000000000000 0.0000000000000000 0.17500251294239058 0.52700753086084939 3.1311399174868879
ITEM: TIMESTEP
1.3000000000000005
ITEM: NUMBER OF ATOMS
2
ITEM: BOX BOUNDS xy xz yz
-1.2500000000000000 1.2500000000000000 0.0000000000000000
0.0000000000000000 2.5000000000000000 4.6880926653065435E-310
0.0000000000000000 2.5000000000000000 0.0000000000000000
ITEM: ATOMS type x y z vx vy vz
1 -1.2500000000000000 0.0000000000000000 0.0000000000000000 -0.14626614594314999 -0.53268271057215211 3.1316537714773713
1 1.2500000000000000 0.0000000000000000 0.0000000000000000 0.14930002492577268 0.53498173746326827 3.1311186568282494
ITEM: TIMESTEP
1.3500000000000005
ITEM: NUMBER OF ATOMS
2
ITEM: BOX BOUNDS xy xz yz
-1.2500000000000000 1.2500000000000000 0.0000000000000000
0.0000000000000000 2.5000000000000000 4.6880926611872218E-310
0.0000000000000000 2.5000000000000000 0.0000000000000000
ITEM: ATOMS type x y z vx vy vz
1 -1.2500000000000000 0.0000000000000000 0.0000000000000000 -0.12015861064113363 -0.53927492174216662 3.1316360687456601
1 1.2500000000000000 0.0000000000000000 0.0000000000000000 0.12322909349101653 0.54172043490886856 3.1310946266313198
ITEM: TIMESTEP
1.4000000000000006
ITEM: NUMBER OF ATOMS
2
ITEM: BOX BOUNDS xy xz yz
-1.2500000000000000 1.2500000000000000 0.0000000000000000
0.0000000000000000 2.5000000000000000 4.6880926612860349E-310
0.0000000000000000 2.5000000000000000 0.0000000000000000
ITEM: ATOMS type x y z vx vy vz
1 -1.2500000000000000 0.0000000000000000 0.0000000000000000 -9.3750168399341749E-002 -0.54461336934541726 3.1316141499002277
1 1.2500000000000000 0.0000000000000000 0.0000000000000000 9.6850077538176219E-002 0.54720697998615664 3.1310676427594588
ITEM: TIMESTEP
1.4500000000000006
ITEM: NUMBER OF ATOMS
2
ITEM: BOX BOUNDS xy xz yz
-1.2500000000000000 1.2500000000000000 0.0000000000000000
0.0000000000000000 2.5000000000000000 4.6880926653065435E-310
0.0000000000000000 2.5000000000000000 0.0000000000000000
ITEM: ATOMS type x y z vx vy vz
1 -1.2500000000000000 0.0000000000000000 0.0000000000000000 -6.7102009676206956E-002 -0.54868464380986726 3.1315878531417010
1 1.2500000000000000 0.0000000000000000 0.0000000000000000 7.0224096465918720E-002 0.55142762342058771 3.1310375520591034
ITEM: TIMESTEP
1.5000000000000007
ITEM: NUMBER OF ATOMS
2
ITEM: BOX BOUNDS xy xz yz
-1.2500000000000000 1.2500000000000000 0.0000000000000000
0.0000000000000000 2.5000000000000000 4.6880926611872218E-310
0.0000000000000000 2.5000000000000000 0.0000000000000000
ITEM: ATOMS type x y z vx vy vz
1 -1.2500000000000000 0.0000000000000000 0.0000000000000000 -4.0275926956506107E-002 -0.55147826268559141 3.1315570528880792
1 1.2500000000000000 0.0000000000000000 0.0000000000000000 4.3412886696645052E-002 0.55437153747235968 3.1310042350193639
ITEM: TIMESTEP
1.5500000000000005
ITEM: NUMBER OF ATOMS
2
ITEM: BOX BOUNDS xy xz yz
-1.2500000000000000 1.2500000000000000 0.0000000000000000
0.0000000000000000 2.5000000000000000 4.6880926612860349E-310
0.0000000000000000 2.5000000000000000 0.0000000000000000
ITEM: ATOMS type x y z vx vy vz
1 -1.2500000000000000 0.0000000000000000 0.0000000000000000 -1.3334174025022860E-002 -0.55298669551263890 3.1315216611719419
1 1.2500000000000000 0.0000000000000000 0.0000000000000000 1.6478662045582033E-002 0.55603084557270654 3.1309676064227956
ITEM: TIMESTEP
1.6000000000000005
ITEM: NUMBER OF ATOMS
2
ITEM: BOX BOUNDS xy xz yz
-1.2500000000000000 1.2500000000000000 0.0000000000000000
0.0000000000000000 2.5000000000000000 4.6880926653065435E-310
0.0000000000000000 2.5000000000000000 0.0000000000000000
ITEM: ATOMS type x y z vx vy vz
1 -1.2500000000000000 0.0000000000000000 0.0000000000000000 1.3660680300421375E-002 -0.55320538656574592 3.1314816279340310
1 1.2500000000000000 0.0000000000000000 0.0000000000000000 -1.0516029326897807E-002 0.55640064190611715 3.1309276163484934
ITEM: TIMESTEP
1.6500000000000006
ITEM: NUMBER OF ATOMS
2
ITEM: BOX BOUNDS xy xz yz
-1.2500000000000000 1.2500000000000000 0.0000000000000000
0.0000000000000000 2.5000000000000000 4.6880926611872218E-310
0.0000000000000000 2.5000000000000000 0.0000000000000000
ITEM: ATOMS type x y z vx vy vz
1 -1.2500000000000000 0.0000000000000000 0.0000000000000000 4.0645890850426282E-002 -0.55213276127556155 3.1314369426005042
1 1.2500000000000000 0.0000000000000000 0.0000000000000000 -3.7508448424165418E-002 0.55547900466534172 3.1308842507625245
ITEM: TIMESTEP
1.7000000000000006
ITEM: NUMBER OF ATOMS
2
ITEM: BOX BOUNDS xy xz yz
-1.2500000000000000 1.2500000000000000 0.0000000000000000
0.0000000000000000 2.5000000000000000 4.6880926612860349E-310
0.0000000000000000 2.5000000000000000 0.0000000000000000
ITEM: ATOMS type x y z vx vy vz
1 -1.2500000000000000 0.0000000000000000 0.0000000000000000 6.7558683167932204E-002 -0.54977023792654911 3.1313876332735928
1 1.2500000000000000 0.0000000000000000 0.0000000000000000 -6.4435809699228200E-002 0.55326700198081491 3.1308375318670829
ITEM: TIMESTEP
1.7500000000000004
ITEM: NUMBER OF ATOMS
2
ITEM: BOX BOUNDS xy xz yz
-1.2500000000000000 1.2500000000000000 0.0000000000000000
0.0000000000000000 2.5000000000000000 4.6880926653065435E-310
0.0000000000000000 2.5000000000000000 0.0000000000000000
ITEM: ATOMS type x y z vx vy vz
1 -1.2500000000000000 0.0000000000000000 0.0000000000000000 9.4336397475238518E-002 -0.54612222253175480 3.1313337672896453
1 1.2500000000000000 0.0000000000000000 0.0000000000000000 -9.1235424896896261E-002 0.54976869361818903 3.1307875176640834
ITEM: TIMESTEP
1.8000000000000005
ITEM: NUMBER OF ATOMS
2
ITEM: BOX BOUNDS xy xz yz
-1.2500000000000000 1.2500000000000000 0.0000000000000000
0.0000000000000000 2.5000000000000000 4.6880926611872218E-310
0.0000000000000000 2.5000000000000000 0.0000000000000000
ITEM: ATOMS type x y z vx vy vz
1 -1.2500000000000000 0.0000000000000000 0.0000000000000000 0.12091663132549992 -0.54119610824770581 3.1312754495071848
1 1.2500000000000000 0.0000000000000000 0.0000000000000000 -0.11784484735214439 0.54499112310277231 3.1307343016761622
ITEM: TIMESTEP
1.8500000000000005
ITEM: NUMBER OF ATOMS
2
ITEM: BOX BOUNDS xy xz yz
-1.2500000000000000 1.2500000000000000 0.0000000000000000
0.0000000000000000 2.5000000000000000 4.6880926612860349E-310
0.0000000000000000 2.5000000000000000 0.0000000000000000
ITEM: ATOMS type x y z vx vy vz
1 -1.2500000000000000 0.0000000000000000 0.0000000000000000 0.14723738538753475 -0.53500225241762700 3.1312128228934388
1 1.2500000000000000 0.0000000000000000 0.0000000000000000 -0.14420201603815419 0.53894430561874329 3.1306780118708564
ITEM: TIMESTEP
1.9000000000000006
ITEM: NUMBER OF ATOMS
2
ITEM: BOX BOUNDS xy xz yz
-1.2500000000000000 1.2500000000000000 0.0000000000000000
0.0000000000000000 2.5000000000000000 4.6880926653065435E-310
0.0000000000000000 2.5000000000000000 0.0000000000000000
ITEM: ATOMS type x y z vx vy vz
1 -1.2500000000000000 0.0000000000000000 0.0000000000000000 0.17323720513613552 -0.52755396134184918 3.1311460663196682
1 1.2500000000000000 0.0000000000000000 0.0000000000000000 -0.17024539827723587 0.53164120686688610 3.1306188096806902
ITEM: TIMESTEP
1.9500000000000006
ITEM: NUMBER OF ATOMS
2
ITEM: BOX BOUNDS xy xz yz
-1.2500000000000000 1.2500000000000000 0.0000000000000000
0.0000000000000000 2.5000000000000000 4.6880926611872218E-310
0.0000000000000000 2.5000000000000000 0.0000000000000000
ITEM: ATOMS type x y z vx vy vz
1 -1.2500000000000000 0.0000000000000000 0.0000000000000000 0.19885532270677120 -0.51886746510295467 3.1310753926229258
1 1.2500000000000000 0.0000000000000000 0.0000000000000000 -0.19591413206101910 0.52309771800431959 3.1305568882033508
ITEM: TIMESTEP
2.0000000000000009
ITEM: NUMBER OF ATOMS
2
ITEM: BOX BOUNDS xy xz yz
-1.2500000000000000 1.2500000000000000 0.0000000000000000
0.0000000000000000 2.5000000000000000 4.6880926612860349E-310
0.0000000000000000 2.5000000000000000 0.0000000000000000
ITEM: ATOMS type x y z vx vy vz
1 -1.2500000000000000 0.0000000000000000 0.0000000000000000 0.22403179866825279 -0.50896187940523330 3.1310010473485548
1 1.2500000000000000 0.0000000000000000 0.0000000000000000 -0.22114816708439583 0.51333262274982805 3.1304924703017560
ITEM: TIMESTEP
2.0500000000000007
ITEM: NUMBER OF ATOMS
2
ITEM: BOX BOUNDS xy xz yz
-1.2500000000000000 1.2500000000000000 0.0000000000000000
0.0000000000000000 2.5000000000000000 4.6880926653065435E-310
0.0000000000000000 2.5000000000000000 0.0000000000000000
ITEM: ATOMS type x y z vx vy vz
1 -1.2500000000000000 0.0000000000000000 0.0000000000000000 0.24870766007931538 -0.49785916709001082 3.1309233062408768
1 1.2500000000000000 0.0000000000000000 0.0000000000000000 -0.24588840382236676 0.50236755668534860 3.1304258066364832
ITEM: TIMESTEP
2.1000000000000005
ITEM: NUMBER OF ATOMS
2
ITEM: BOX BOUNDS xy xz yz
-1.2500000000000000 1.2500000000000000 0.0000000000000000
0.0000000000000000 2.5000000000000000 4.6880926611872218E-310
0.0000000000000000 2.5000000000000000 0.0000000000000000
ITEM: ATOMS type x y z vx vy vz
1 -1.2500000000000000 0.0000000000000000 0.0000000000000000 0.27282503840982980 -0.48558409265574021 3.1308424724627018
1 1.2500000000000000 0.0000000000000000 0.0000000000000000 -0.27007683119774994 0.49022696249139747 3.1303571729910686
ITEM: TIMESTEP
2.1500000000000008
ITEM: NUMBER OF ATOMS
2
ITEM: BOX BOUNDS xy xz yz
-1.2500000000000000 1.2500000000000000 0.0000000000000000
0.0000000000000000 2.5000000000000000 4.6880926612860349E-310
0.0000000000000000 2.5000000000000000 0.0000000000000000
ITEM: ATOMS type x y z vx vy vz
1 -1.2500000000000000 0.0000000000000000 0.0000000000000000 0.29632730331128160 -0.47216416581743159 3.1307588744312742
1 1.2500000000000000 0.0000000000000000 0.0000000000000000 -0.29365666161006504 0.47693803662958839 3.1302868677340006
ITEM: TIMESTEP
2.2000000000000006
ITEM: NUMBER OF ATOMS
2
ITEM: BOX BOUNDS xy xz yz
-1.2500000000000000 1.2500000000000000 0.0000000000000000
0.0000000000000000 2.5000000000000000 4.6880926653065435E-310
0.0000000000000000 2.5000000000000000 0.0000000000000000
ITEM: ATOMS type x y z vx vy vz
1 -1.2500000000000000 0.0000000000000000 0.0000000000000000 0.31915919822259398 -0.45762958886040711 3.1306728614771231
1 1.2500000000000000 0.0000000000000000 0.0000000000000000 -0.31657246419590579 0.46253067149277055 3.1302152087103172
ITEM: TIMESTEP
2.2500000000000009
ITEM: NUMBER OF ATOMS
2
ITEM: BOX BOUNDS xy xz yz
-1.2500000000000000 1.2500000000000000 0.0000000000000000
0.0000000000000000 2.5000000000000000 4.6880926611872218E-310
0.0000000000000000 2.5000000000000000 0.0000000000000000
ITEM: ATOMS type x y z vx vy vz
1 -1.2500000000000000 0.0000000000000000 0.0000000000000000 0.34126696617922220 -0.44201318240239801 3.1305848022976996
1 1.2500000000000000 0.0000000000000000 0.0000000000000000 -0.33877029446280937 0.44703738986684161 3.1301425302453270
ITEM: TIMESTEP
2.3000000000000007
ITEM: NUMBER OF ATOMS
2
ITEM: BOX BOUNDS xy xz yz
-1.2500000000000000 1.2500000000000000 0.0000000000000000
0.0000000000000000 2.5000000000000000 4.6880926612860349E-310
0.0000000000000000 2.5000000000000000 0.0000000000000000
ITEM: ATOMS type x y z vx vy vz
1 -1.2500000000000000 0.0000000000000000 0.0000000000000000 0.36259847891284058 -0.42535031903658571 3.1304950805240956
1 1.2500000000000000 0.0000000000000000 0.0000000000000000 -0.36019782143423995 0.43049327356001466 3.1300691798830265
ITEM: TIMESTEP
2.3500000000000010
ITEM: NUMBER OF ATOMS
2
ITEM: BOX BOUNDS xy xz yz
-1.2500000000000000 1.2500000000000000 0.0000000000000000
0.0000000000000000 2.5000000000000000 4.6880926653065435E-310
0.0000000000000000 2.5000000000000000 0.0000000000000000
ITEM: ATOMS type x y z vx vy vz
1 -1.2500000000000000 0.0000000000000000 0.0000000000000000 0.38310335953606206 -0.40767884379897151 3.1304040915241127
1 1.2500000000000000 0.0000000000000000 0.0000000000000000 -0.38080445187739403 0.41293588776802170 3.1299955146970397
ITEM: TIMESTEP
2.4000000000000008
ITEM: NUMBER OF ATOMS
2
ITEM: BOX BOUNDS xy xz yz
-1.2500000000000000 1.2500000000000000 0.0000000000000000
0.0000000000000000 2.5000000000000000 4.6880926611872218E-310
0.0000000000000000 2.5000000000000000 0.0000000000000000
ITEM: ATOMS type x y z vx vy vz
1 -1.2500000000000000 0.0000000000000000 0.0000000000000000 0.40273310255661954 -0.38903899114848561 3.1303122386546809
1 1.2500000000000000 0.0000000000000000 0.0000000000000000 -0.40054144972226380 0.39440519602183055 3.1299218981318626
ITEM: TIMESTEP
2.4500000000000011
ITEM: NUMBER OF ATOMS
2
ITEM: BOX BOUNDS xy xz yz
-1.2500000000000000 1.2500000000000000 0.0000000000000000
0.0000000000000000 2.5000000000000000 4.6880926612860349E-310
0.0000000000000000 2.5000000000000000 0.0000000000000000
ITEM: ATOMS type x y z vx vy vz
1 -1.2500000000000000 0.0000000000000000 0.0000000000000000 0.42144118817776616 -0.36947329376968080 3.1302199299886722
1 1.2500000000000000 0.0000000000000000 0.0000000000000000 -0.41936205148182398 0.37494347080002605 3.1298486965796570
ITEM: TIMESTEP
2.5000000000000009
ITEM: NUMBER OF ATOMS
2
ITEM: BOX BOUNDS xy xz yz
-1.2500000000000000 1.2500000000000000 0.0000000000000000
0.0000000000000000 2.5000000000000000 4.6880926653065435E-310
0.0000000000000000 2.5000000000000000 0.0000000000000000
ITEM: ATOMS type x y z vx vy vz
1 -1.2500000000000000 0.0000000000000000 0.0000000000000000 0.43918319513360587 -0.34902648895764965 3.1301275742560599
1 1.2500000000000000 0.0000000000000000 0.0000000000000000 -0.43722157957770941 0.35459520137311679 3.1297762753134166
ITEM: TIMESTEP
2.5500000000000012
ITEM: NUMBER OF ATOMS
2
ITEM: BOX BOUNDS xy xz yz
-1.2500000000000000 1.2500000000000000 0.0000000000000000
0.0000000000000000 2.5000000000000000 4.6880926611872218E-310
0.0000000000000000 2.5000000000000000 0.0000000000000000
ITEM: ATOMS type x y z vx vy vz
1 -1.2500000000000000 0.0000000000000000 0.0000000000000000 0.45591690668018292 -0.32774541716066313 3.1300355773909900
1 1.2500000000000000 0.0000000000000000 0.0000000000000000 -0.45407754865182676 0.33340699204465685 3.1297049952776823
ITEM: TIMESTEP
2.6000000000000010
ITEM: NUMBER OF ATOMS
2
ITEM: BOX BOUNDS xy xz yz
-1.2500000000000000 1.2500000000000000 0.0000000000000000
0.0000000000000000 2.5000000000000000 4.6880926612860349E-310
0.0000000000000000 2.5000000000000000 0.0000000000000000
ITEM: ATOMS type x y z vx vy vz
1 -1.2500000000000000 0.0000000000000000 0.0000000000000000 0.47160241201162062 -0.30567891549022019 3.1299443390593287
1 1.2500000000000000 0.0000000000000000 0.0000000000000000 -0.46988976830017859 0.31142745734031058 3.1296352094870965
ITEM: TIMESTEP
2.6500000000000008
ITEM: NUMBER OF ATOMS
2
ITEM: BOX BOUNDS xy xz yz
-1.2500000000000000 1.2500000000000000 0.0000000000000000
0.0000000000000000 2.5000000000000000 4.6880926653065435E-310
0.0000000000000000 2.5000000000000000 0.0000000000000000
ITEM: ATOMS type x y z vx vy vz
1 -1.2500000000000000 0.0000000000000000 0.0000000000000000 0.48620220400027203 -0.28287770822052466 3.1298542488456511
1 1.2500000000000000 0.0000000000000000 0.0000000000000000 -0.48462044026774009 0.28870711127963405 3.1295672596656652
ITEM: TIMESTEP
2.7000000000000011
ITEM: NUMBER OF ATOMS
2
ITEM: BOX BOUNDS xy xz yz
-1.2500000000000000 1.2500000000000000 0.0000000000000000
0.0000000000000000 2.5000000000000000 4.6880926611872218E-310
0.0000000000000000 2.5000000000000000 0.0000000000000000
ITEM: ATOMS type x y z vx vy vz
1 -1.2500000000000000 0.0000000000000000 0.0000000000000000 0.49968127016180847 -0.25939428965857503 3.1297656830411440
1 1.2500000000000000 0.0000000000000000 0.0000000000000000 -0.49823425083367506 0.26529825261910528 3.1295014728313273
ITEM: TIMESTEP
2.7500000000000009
ITEM: NUMBER OF ATOMS
2
ITEM: BOX BOUNDS xy xz yz
-1.2500000000000000 1.2500000000000000 0.0000000000000000
0.0000000000000000 2.5000000000000000 4.6880926612860349E-310
0.0000000000000000 2.5000000000000000 0.0000000000000000
ITEM: ATOMS type x y z vx vy vz
1 -1.2500000000000000 0.0000000000000000 0.0000000000000000 0.51200717927225137 -0.23528280511375399 3.1296790011104121
1 1.2500000000000000 0.0000000000000000 0.0000000000000000 -0.51069845664578306 0.24125484439715211 3.1294381582697097
ITEM: TIMESTEP
2.8000000000000012
ITEM: NUMBER OF ATOMS
2
ITEM: BOX BOUNDS xy xz yz