ITEM: TIMESTEP
0.0000000000000000
ITEM: NUMBER OF ATOMS
5
ITEM: BOX BOUNDS xy xz yz
0.0000000000000000 22.000000000000000 0.0000000000000000
0.0000000000000000 22.000000000000000 1.2731974745791634E-313
0.0000000000000000 11.000000000000000 0.0000000000000000
ITEM: ATOMS type x y z vx vy vz
1 0.0000000000000000 0.0000000000000000 0.0000000000000000 1.7047162343851121 1.0984770134790935 2.4494266290464570
1 0.0000000000000000 0.0000000000000000 2.2000000000000002 0.45580761457841817 -0.82498041180900150 3.0371115782308329
1 0.0000000000000000 0.0000000000000000 4.4000000000000004 -0.18525622819601409 0.24170337287866403 3.1653845910811009
1 0.0000000000000000 0.0000000000000000 6.6000000000000005 -0.20795149355175768 0.26372494166060467 3.1622152569797808
1 0.0000000000000000 0.0000000000000000 8.8000000000000007 0.37655444553080236 -0.89723263137190967 3.0274709502739130
ITEM: TIMESTEP
1.0000000000000000
ITEM: NUMBER OF ATOMS
5
ITEM: BOX BOUNDS xy xz yz
0.0000000000000000 22.000000000000000 0.0000000000000000
0.0000000000000000 22.000000000000000 1.2731974745791634E-313
0.0000000000000000 11.000000000000000 0.0000000000000000
ITEM: ATOMS type x y z vx vy vz
1 0.0000000000000000 0.0000000000000000 0.0000000000000000 0.48387318617156422 0.99626286548702869 2.9808936650869899
1 0.0000000000000000 0.0000000000000000 2.2000000000000002 1.5248733471419147 -0.63543447020176391 2.7172383607728667
1 0.0000000000000000 0.0000000000000000 4.4000000000000004 -0.61353092353951799 0.11243948562347034 3.1182266062512962
1 0.0000000000000000 0.0000000000000000 6.6000000000000005 -0.72171129034868697 0.11507879224403851 3.0948812069219853
1 0.0000000000000000 0.0000000000000000 8.8000000000000007 1.5269075018918097 -0.81636124829793055 2.6673034684759740
ITEM: TIMESTEP
2.0000000000000000
ITEM: NUMBER OF ATOMS
5
ITEM: BOX BOUNDS xy xz yz
0.0000000000000000 22.000000000000000 0.0000000000000000
0.0000000000000000 22.000000000000000 1.2731974745791634E-313
0.0000000000000000 11.000000000000000 0.0000000000000000
ITEM: ATOMS type x y z vx vy vz
1 0.0000000000000000 0.0000000000000000 0.0000000000000000 0.18297555187904821 -0.43323314428974274 3.1450324306918325
1 0.0000000000000000 0.0000000000000000 2.2000000000000002 1.7694043719872485 0.66175960469382933 2.5580622341897539
1 0.0000000000000000 0.0000000000000000 4.4000000000000004 -0.72538892958163936 -0.38273952001338857 3.0724129541225942
1 0.0000000000000000 0.0000000000000000 6.6000000000000005 -0.86710136389535508 -0.54002140284617894 3.0114634497531032
1 0.0000000000000000 0.0000000000000000 8.8000000000000007 1.9125014403373157 0.55053852656153113 2.4802511105690801
ITEM: TIMESTEP
3.0000000000000000
ITEM: NUMBER OF ATOMS
5
ITEM: BOX BOUNDS xy xz yz
0.0000000000000000 22.000000000000000 0.0000000000000000
0.0000000000000000 22.000000000000000 1.2731974745791634E-313
0.0000000000000000 11.000000000000000 0.0000000000000000
ITEM: ATOMS type x y z vx vy vz
1 0.0000000000000000 0.0000000000000000 0.0000000000000000 0.55826517453101754 -1.2130368161125191 2.8860494932799483
1 0.0000000000000000 0.0000000000000000 2.2000000000000002 1.2917103666931302 1.1966950008216954 2.6479813827868699
1 0.0000000000000000 0.0000000000000000 4.4000000000000004 -0.44864337557538203 -0.48423171744850674 3.1107296194573384
1 0.0000000000000000 0.0000000000000000 6.6000000000000005 -0.71519238763484927 -0.91900267505666244 2.9591103277687809
1 0.0000000000000000 0.0000000000000000 8.8000000000000007 0.65690883597902805 1.5469665326662245 2.6995861401376544
ITEM: TIMESTEP
4.0000000000000000
ITEM: NUMBER OF ATOMS
5
ITEM: BOX BOUNDS xy xz yz
0.0000000000000000 22.000000000000000 0.0000000000000000
0.0000000000000000 22.000000000000000 1.2731974745791634E-313
0.0000000000000000 11.000000000000000 0.0000000000000000
ITEM: ATOMS type x y z vx vy vz
1 0.0000000000000000 0.0000000000000000 0.0000000000000000 1.4025498166515145 -1.4740225203126602 2.4438722596367253
1 0.0000000000000000 0.0000000000000000 2.2000000000000002 0.61863392885534529 1.2923184804588876 2.8389443473117666
1 0.0000000000000000 0.0000000000000000 4.4000000000000004 -0.25382274529896004 -0.43310425419472076 3.1401265450563192
1 0.0000000000000000 0.0000000000000000 6.6000000000000005 -0.24224556943630091 -1.0300763028604716 2.9987763995292789
1 0.0000000000000000 0.0000000000000000 8.8000000000000007 -1.0632324654712688 1.2319623622727314 2.7320698128545837
ITEM: TIMESTEP
5.0000000000000000
ITEM: NUMBER OF ATOMS
5
ITEM: BOX BOUNDS xy xz yz
0.0000000000000000 22.000000000000000 0.0000000000000000
0.0000000000000000 22.000000000000000 1.2731974745791634E-313
0.0000000000000000 11.000000000000000 0.0000000000000000
ITEM: ATOMS type x y z vx vy vz
1 0.0000000000000000 0.0000000000000000 0.0000000000000000 2.1961194418356120 -1.0091643830430939 2.0666510700137279
1 0.0000000000000000 0.0000000000000000 2.2000000000000002 8.1372810094945597E-002 0.93864595755547242 3.0372227827642186
1 0.0000000000000000 0.0000000000000000 4.4000000000000004 -0.17635358352141908 -0.37721975782807360 3.1526187000465637
1 0.0000000000000000 0.0000000000000000 6.6000000000000005 0.18581842771882598 -0.67131229649744328 3.1027747763077209
1 0.0000000000000000 0.0000000000000000 8.8000000000000007 -2.0284569839363700 -0.28768983279526422 2.4320766485507805
ITEM: TIMESTEP
6.0000000000000000
ITEM: NUMBER OF ATOMS
5
ITEM: BOX BOUNDS xy xz yz
0.0000000000000000 22.000000000000000 0.0000000000000000
0.0000000000000000 22.000000000000000 1.2731974745791634E-313
0.0000000000000000 11.000000000000000 0.0000000000000000
ITEM: ATOMS type x y z vx vy vz
1 0.0000000000000000 0.0000000000000000 0.0000000000000000 2.0295790051133320 0.55973700943947691 2.3832548210938174
1 0.0000000000000000 0.0000000000000000 2.2000000000000002 -0.14265971561839513 -0.40040273668783966 3.1514640810252885
1 0.0000000000000000 0.0000000000000000 4.4000000000000004 0.35566226060600475 -0.26511716918886724 3.1489073093665212
1 0.0000000000000000 0.0000000000000000 6.6000000000000005 -0.30806610549366381 0.55853226004481205 3.1153710836969646
1 0.0000000000000000 0.0000000000000000 8.8000000000000007 -1.6431710588548585 -1.9758647596225409 1.8730582807332927
ITEM: TIMESTEP
6.9999999999999991
ITEM: NUMBER OF ATOMS
5
ITEM: BOX BOUNDS xy xz yz
0.0000000000000000 22.000000000000000 0.0000000000000000
0.0000000000000000 22.000000000000000 1.2731974745791634E-313
0.0000000000000000 11.000000000000000 0.0000000000000000
ITEM: ATOMS type x y z vx vy vz
1 0.0000000000000000 0.0000000000000000 0.0000000000000000 0.39674467372436395 1.1607819542994304 2.9338675700249559
1 0.0000000000000000 0.0000000000000000 2.2000000000000002 0.89271357863148049 -1.3161497131129971 2.7537633157552870
1 0.0000000000000000 0.0000000000000000 4.4000000000000004 0.53098144503260580 0.29116736193836068 3.1218072125570049
1 0.0000000000000000 0.0000000000000000 6.6000000000000005 -1.5831750174585750 0.72141329953900746 2.6618639550779601
1 0.0000000000000000 0.0000000000000000 8.8000000000000007 0.10877705455159530 -2.4658399609647104 2.0050438497231511
ITEM: TIMESTEP
8.0000000000000000
ITEM: NUMBER OF ATOMS
5
ITEM: BOX BOUNDS xy xz yz
0.0000000000000000 22.000000000000000 0.0000000000000000
0.0000000000000000 22.000000000000000 1.2731974745791634E-313
0.0000000000000000 11.000000000000000 0.0000000000000000
ITEM: ATOMS type x y z vx vy vz
1 0.0000000000000000 0.0000000000000000 0.0000000000000000 -0.64311815679891804 0.89252561420126075 2.9836549841411322
1 0.0000000000000000 0.0000000000000000 2.2000000000000002 1.5478888749929547 -1.1459569773894436 2.5304589774674273
1 0.0000000000000000 0.0000000000000000 4.4000000000000004 0.54127533237416925 0.37205650721144523 3.1114297308479983
1 0.0000000000000000 0.0000000000000000 6.6000000000000005 -2.0383033229741310 0.37927412036669123 2.4111969445013584
1 0.0000000000000000 0.0000000000000000 8.8000000000000007 1.4130285142081287 -1.0870385411123193 2.6332674813188208
ITEM: TIMESTEP
9.0000000000000000
ITEM: NUMBER OF ATOMS
5
ITEM: BOX BOUNDS xy xz yz
0.0000000000000000 22.000000000000000 0.0000000000000000
0.0000000000000000 22.000000000000000 1.2731974745791634E-313
0.0000000000000000 11.000000000000000 0.0000000000000000
ITEM: ATOMS type x y z vx vy vz
1 0.0000000000000000 0.0000000000000000 0.0000000000000000 -1.2751506871201179 8.7093031251812367E-003 2.9131280221054756
1 0.0000000000000000 0.0000000000000000 2.2000000000000002 1.9197360602990858 -0.66271371322012285 2.4470030635651732
1 0.0000000000000000 0.0000000000000000 4.4000000000000004 0.52244744898728146 0.51338566733945368 3.0944924979093260
1 0.0000000000000000 0.0000000000000000 6.6000000000000005 -2.1193723303013048 -0.37715889481465653 2.3406007975764260
1 0.0000000000000000 0.0000000000000000 8.8000000000000007 1.3713947883546378 1.1033242713501310 2.6484621739272463
ITEM: TIMESTEP
10.000000000000002
ITEM: NUMBER OF ATOMS
5
ITEM: BOX BOUNDS xy xz yz
0.0000000000000000 22.000000000000000 0.0000000000000000
0.0000000000000000 22.000000000000000 1.2731974745791634E-313
0.0000000000000000 11.000000000000000 0.0000000000000000
ITEM: ATOMS type x y z vx vy vz
1 0.0000000000000000 0.0000000000000000 0.0000000000000000 -1.1305588197611802 -0.99686270086932993 2.8000895540456749
1 0.0000000000000000 0.0000000000000000 2.2000000000000002 1.9190357178489188 -0.17087541048145899 2.5299216406270140
1 0.0000000000000000 0.0000000000000000 4.4000000000000004 0.31922107452086068 0.67881367938670278 3.0902604897094403
1 0.0000000000000000 0.0000000000000000 6.6000000000000005 -1.5870240017501605 -1.0589962717086727 2.5440679461005038
1 0.0000000000000000 0.0000000000000000 8.8000000000000007 -0.14496426097933507 2.5731909834534865 1.8628133362504133
ITEM: TIMESTEP
11.000000000000002
ITEM: NUMBER OF ATOMS
5
ITEM: BOX BOUNDS xy xz yz
0.0000000000000000 22.000000000000000 0.0000000000000000
0.0000000000000000 22.000000000000000 1.2731974745791634E-313
0.0000000000000000 11.000000000000000 0.0000000000000000
ITEM: ATOMS type x y z vx vy vz
1 0.0000000000000000 0.0000000000000000 0.0000000000000000 -1.1305588197611802 -0.99686270086932993 2.8000895540456749
1 0.0000000000000000 0.0000000000000000 2.2000000000000002 1.9190357178489188 -0.17087541048145899 2.5299216406270140
1 0.0000000000000000 0.0000000000000000 4.4000000000000004 0.31922107452086068 0.67881367938670278 3.0902604897094403
1 0.0000000000000000 0.0000000000000000 6.6000000000000005 -1.5870240017501605 -1.0589962717086727 2.5440679461005038
1 0.0000000000000000 0.0000000000000000 8.8000000000000007 -1.5370606214916420 2.7690326331710753 0.28688485894760773
ITEM: TIMESTEP
12.000000000000002
ITEM: NUMBER OF ATOMS
5
ITEM: BOX BOUNDS xy xz yz
0.0000000000000000 22.000000000000000 0.0000000000000000
0.0000000000000000 22.000000000000000 1.2731974745791634E-313
0.0000000000000000 11.000000000000000 0.0000000000000000
ITEM: ATOMS type x y z vx vy vz
1 0.0000000000000000 0.0000000000000000 0.0000000000000000 -0.60373358424157719 -1.1344075787710985 2.9087841453922820
1 0.0000000000000000 0.0000000000000000 2.2000000000000002 1.7548273935805532 0.10869029368674062 2.6497485236900458
1 0.0000000000000000 0.0000000000000000 4.4000000000000004 -0.13032487348611632 0.57123900868056243 3.1255561780765468
1 0.0000000000000000 0.0000000000000000 6.6000000000000005 -0.94200476323246962 -0.78536200902855557 2.9339791309452030
1 0.0000000000000000 0.0000000000000000 8.8000000000000007 -2.4316749074290884 1.8308615840761335 -0.92049063250745100
ITEM: TIMESTEP
13.000000000000002
ITEM: NUMBER OF ATOMS
5
ITEM: BOX BOUNDS xy xz yz
0.0000000000000000 22.000000000000000 0.0000000000000000
0.0000000000000000 22.000000000000000 1.2731974745791634E-313
0.0000000000000000 11.000000000000000 0.0000000000000000
ITEM: ATOMS type x y z vx vy vz
1 0.0000000000000000 0.0000000000000000 0.0000000000000000 -0.25544015863414032 -0.71577123002530285 3.0878506880393402
1 0.0000000000000000 0.0000000000000000 2.2000000000000002 1.2288802019179921 0.53710599505986445 2.8833609901302251
1 0.0000000000000000 0.0000000000000000 4.4000000000000004 -0.35674037186641744 -0.30838739212756389 3.1448423686183964
1 0.0000000000000000 0.0000000000000000 6.6000000000000005 -0.36832006492537533 0.41736749878889173 3.1309015795339330
1 0.0000000000000000 0.0000000000000000 8.8000000000000007 -2.6747802269812606 0.67839826136194736 -1.5804197342260577
ITEM: TIMESTEP
14.000000000000002
ITEM: NUMBER OF ATOMS
5
ITEM: BOX BOUNDS xy xz yz
0.0000000000000000 22.000000000000000 0.0000000000000000
0.0000000000000000 22.000000000000000 1.2731974745791634E-313
0.0000000000000000 11.000000000000000 0.0000000000000000
ITEM: ATOMS type x y z vx vy vz
1 0.0000000000000000 0.0000000000000000 0.0000000000000000 -0.18036664979349229 1.0309881220938876E-002 3.1748640251184739
1 0.0000000000000000 0.0000000000000000 2.2000000000000002 0.46739303123417963 0.55109966037980462 3.0968101198948239
1 0.0000000000000000 0.0000000000000000 4.4000000000000004 0.36435071977622419 -1.1000953136023337 2.9613238347044595
1 0.0000000000000000 0.0000000000000000 6.6000000000000005 -0.42015652446562590 1.5403522029042953 2.7501242855472654
1 0.0000000000000000 0.0000000000000000 8.8000000000000007 -2.8381949739622101 -0.24185578865819632 -1.4137026092032832
ITEM: TIMESTEP
15.000000000000000
ITEM: NUMBER OF ATOMS
5
ITEM: BOX BOUNDS xy xz yz
0.0000000000000000 22.000000000000000 0.0000000000000000
0.0000000000000000 22.000000000000000 1.2731974745791634E-313
0.0000000000000000 11.000000000000000 0.0000000000000000
ITEM: ATOMS type x y z vx vy vz
1 0.0000000000000000 0.0000000000000000 0.0000000000000000 -0.47071702041176783 1.0118074940542932 2.9777627645046261
1 0.0000000000000000 0.0000000000000000 2.2000000000000002 -7.9121552221542921E-002 -9.1890777955145123E-002 3.1776871880191186
1 0.0000000000000000 0.0000000000000000 4.4000000000000004 1.5262104253377065 -1.1825593866661843 2.5267835353662949
1 0.0000000000000000 0.0000000000000000 6.6000000000000005 -0.86674749314782662 2.1642273999119404 2.1626993652822777
1 0.0000000000000000 0.0000000000000000 8.8000000000000007 -2.9768686763774270 -1.0159921057659749 -0.46734668568860627
ITEM: TIMESTEP
16.000000000000000
ITEM: NUMBER OF ATOMS
5
ITEM: BOX BOUNDS xy xz yz
0.0000000000000000 22.000000000000000 0.0000000000000000
0.0000000000000000 22.000000000000000 1.2731974745791634E-313
0.0000000000000000 11.000000000000000 0.0000000000000000
ITEM: ATOMS type x y z vx vy vz
1 0.0000000000000000 0.0000000000000000 0.0000000000000000 -1.3955564656798836 1.7622617677743615 2.2492789095485359
1 0.0000000000000000 0.0000000000000000 2.2000000000000002 0.15786766402847063 -1.0154304418899249 3.0093818000276111
1 0.0000000000000000 0.0000000000000000 4.4000000000000004 2.3659626988907747 -0.62442941790590090 2.0309378152743069
1 0.0000000000000000 0.0000000000000000 6.6000000000000005 -1.5503314654620799 2.1520638518177981 1.7542786337686904
1 0.0000000000000000 0.0000000000000000 8.8000000000000007 -2.5574499050200861 -1.5067620892357867 1.1408409134294575
ITEM: TIMESTEP
17.000000000000000
ITEM: NUMBER OF ATOMS
5
ITEM: BOX BOUNDS xy xz yz
0.0000000000000000 22.000000000000000 0.0000000000000000
0.0000000000000000 22.000000000000000 1.2731974745791634E-313
0.0000000000000000 11.000000000000000 0.0000000000000000
ITEM: ATOMS type x y z vx vy vz
1 0.0000000000000000 0.0000000000000000 0.0000000000000000 -1.9773321545775808 1.8394564282566888 1.6789751633120491
1 0.0000000000000000 0.0000000000000000 2.2000000000000002 0.45060637021259670 -1.2251399562747676 2.8997217084856413
1 0.0000000000000000 0.0000000000000000 4.4000000000000004 2.5895534732253394 -0.32232787313577410 1.8173380399656924
1 0.0000000000000000 0.0000000000000000 6.6000000000000005 -1.8383083147322110 1.9588204402258664 1.7017770191596087
1 0.0000000000000000 0.0000000000000000 8.8000000000000007 -1.4133281819010537 -0.97570527810007479 2.6763599646781291
ITEM: TIMESTEP
18.000000000000000
ITEM: NUMBER OF ATOMS
5
ITEM: BOX BOUNDS xy xz yz
0.0000000000000000 22.000000000000000 0.0000000000000000
0.0000000000000000 22.000000000000000 1.2731974745791634E-313
0.0000000000000000 11.000000000000000 0.0000000000000000
ITEM: ATOMS type x y z vx vy vz
1 0.0000000000000000 0.0000000000000000 0.0000000000000000 -2.5797066327827514 1.4722700721199855 1.1357528443796607
1 0.0000000000000000 0.0000000000000000 2.2000000000000002 0.60813642914814892 -1.3142736088634348 2.8311225626221170
1 0.0000000000000000 0.0000000000000000 4.4000000000000004 2.7029940913968291 -2.8410489530194837E-002 1.6749375468830130
1 0.0000000000000000 0.0000000000000000 6.6000000000000005 -2.1507120197973748 1.4234799788913461 1.8602533584419600
1 0.0000000000000000 0.0000000000000000 8.8000000000000007 -0.13669644209520490 0.65376101782299811 3.1090690912704959
ITEM: TIMESTEP
18.999999999999996
ITEM: NUMBER OF ATOMS
5
ITEM: BOX BOUNDS xy xz yz
0.0000000000000000 22.000000000000000 0.0000000000000000
0.0000000000000000 22.000000000000000 1.2731974745791634E-313
0.0000000000000000 11.000000000000000 0.0000000000000000
ITEM: ATOMS type x y z vx vy vz
1 0.0000000000000000 0.0000000000000000 0.0000000000000000 -2.9439225703924570 0.84339139459549894 0.85697774478461308
1 0.0000000000000000 0.0000000000000000 2.2000000000000002 0.56187527471158549 -1.3184147220972180 2.8387459900852519
1 0.0000000000000000 0.0000000000000000 4.4000000000000004 2.6656836206553520 0.33677642130784230 1.7009151879564302
1 0.0000000000000000 0.0000000000000000 6.6000000000000005 -2.1386797396812889 0.59362051409273942 2.2772930545551331
1 0.0000000000000000 0.0000000000000000 8.8000000000000007 0.39613678644989692 2.4454106306737615 1.9938511714290261
ITEM: TIMESTEP
19.999999999999996
ITEM: NUMBER OF ATOMS
5
ITEM: BOX BOUNDS xy xz yz
0.0000000000000000 22.000000000000000 0.0000000000000000
0.0000000000000000 22.000000000000000 1.2731974745791634E-313
0.0000000000000000 11.000000000000000 0.0000000000000000
ITEM: ATOMS type x y z vx vy vz
1 0.0000000000000000 0.0000000000000000 0.0000000000000000 -3.0302574563451263 0.37519528449697315 0.88835142075419227
1 0.0000000000000000 0.0000000000000000 2.2000000000000002 0.43991450390436138 -1.2447913525116767 2.8929862975767331
1 0.0000000000000000 0.0000000000000000 4.4000000000000004 2.3966805902526946 0.83768416192950712 1.9148387381600727
1 0.0000000000000000 0.0000000000000000 6.6000000000000005 -1.6142353830489116 -0.21815428364665285 2.7311266606731284
1 0.0000000000000000 0.0000000000000000 8.8000000000000007 0.10504020097823140 3.1748182404658811 0.14797194390685584
ITEM: TIMESTEP
20.999999999999996
ITEM: NUMBER OF ATOMS
5
ITEM: BOX BOUNDS xy xz yz
0.0000000000000000 22.000000000000000 0.0000000000000000
0.0000000000000000 22.000000000000000 1.2731974745791634E-313
0.0000000000000000 11.000000000000000 0.0000000000000000
ITEM: ATOMS type x y z vx vy vz
1 0.0000000000000000 0.0000000000000000 0.0000000000000000 -2.9313113398692194 0.39872210466289110 1.1665481181705744
1 0.0000000000000000 0.0000000000000000 2.2000000000000002 0.56678153466296022 -0.80768912163897255 3.0230443223266126
1 0.0000000000000000 0.0000000000000000 4.4000000000000004 1.0445496853632288 1.5958237766317822 2.5445357982831096
1 0.0000000000000000 0.0000000000000000 6.6000000000000005 -4.1585999009435402E-002 -1.1135745454233155 2.9783590006027891
1 0.0000000000000000 0.0000000000000000 8.8000000000000007 -0.32582540770964408 2.8775994929963926 -1.3136433920960975
ITEM: TIMESTEP
21.999999999999996
ITEM: NUMBER OF ATOMS
5
ITEM: BOX BOUNDS xy xz yz
0.0000000000000000 22.000000000000000 0.0000000000000000
0.0000000000000000 22.000000000000000 1.2731974745791634E-313
0.0000000000000000 11.000000000000000 0.0000000000000000
ITEM: ATOMS type x y z vx vy vz
1 0.0000000000000000 0.0000000000000000 0.0000000000000000 -2.6404304938271306 0.70971828922203373 1.6238308893513382
1 0.0000000000000000 0.0000000000000000 2.2000000000000002 0.89698599925757450 0.18757003203517955 3.0450999327145603
1 0.0000000000000000 0.0000000000000000 4.4000000000000004 -0.68265246877935748 1.1381824185972353 2.8897969459575528
1 0.0000000000000000 0.0000000000000000 6.6000000000000005 1.0578895213927757 -1.4969596928607041 2.5985344789857527
1 0.0000000000000000 0.0000000000000000 8.8000000000000007 -0.23062924654385045 2.5510474997507901 -1.8845070455304362
ITEM: TIMESTEP
22.999999999999993
ITEM: NUMBER OF ATOMS
5
ITEM: BOX BOUNDS xy xz yz
0.0000000000000000 22.000000000000000 0.0000000000000000
0.0000000000000000 22.000000000000000 1.2731974745791634E-313
0.0000000000000000 11.000000000000000 0.0000000000000000
ITEM: ATOMS type x y z vx vy vz
1 0.0000000000000000 0.0000000000000000 0.0000000000000000 -1.8346496882370420 0.97832430202744092 2.4061051684234909
1 0.0000000000000000 0.0000000000000000 2.2000000000000002 0.74539255730250709 1.5743135369334866 2.6605125113304786
1 0.0000000000000000 0.0000000000000000 4.4000000000000004 -1.7290245923609362 -0.17456081744903426 2.6631564880837604
1 0.0000000000000000 0.0000000000000000 6.6000000000000005 1.1787056548811687 -1.7231121840439096 2.3987366217137280
1 0.0000000000000000 0.0000000000000000 8.8000000000000007 0.18669842039318241 2.4713186763413471 -1.9925179296029278
ITEM: TIMESTEP
23.999999999999993
ITEM: NUMBER OF ATOMS
5
ITEM: BOX BOUNDS xy xz yz
0.0000000000000000 22.000000000000000 0.0000000000000000
0.0000000000000000 22.000000000000000 1.2731974745791634E-313
0.0000000000000000 11.000000000000000 0.0000000000000000
ITEM: ATOMS type x y z vx vy vz
1 0.0000000000000000 0.0000000000000000 0.0000000000000000 -0.15940886097183304 1.0127689997726277 3.0101972972121289
1 0.0000000000000000 0.0000000000000000 2.2000000000000002 -0.23297433850713353 2.5109348261573250 1.9373510927004061
1 0.0000000000000000 0.0000000000000000 4.4000000000000004 -1.9084699147122146 -1.1513552656646362 2.2681542356869522
1 0.0000000000000000 0.0000000000000000 6.6000000000000005 0.71828092703254043 -1.9475319104795838 2.4090645420006958
1 0.0000000000000000 0.0000000000000000 8.8000000000000007 0.27941279931149243 2.6919160344613622 -1.6697055282266777
ITEM: TIMESTEP
24.999999999999996
ITEM: NUMBER OF ATOMS
5
ITEM: BOX BOUNDS xy xz yz
0.0000000000000000 22.000000000000000 0.0000000000000000
0.0000000000000000 22.000000000000000 1.2731974745791634E-313
0.0000000000000000 11.000000000000000 0.0000000000000000
ITEM: ATOMS type x y z vx vy vz
1 0.0000000000000000 0.0000000000000000 0.0000000000000000 1.8482249299994316 0.88835847293826353 2.4304904508529517
1 0.0000000000000000 0.0000000000000000 2.2000000000000002 -1.4785516649345298 2.4653748055773721 1.3594896256109015
1 0.0000000000000000 0.0000000000000000 4.4000000000000004 -1.7878205241049061 -1.4269485954665304 2.2090530730349927
1 0.0000000000000000 0.0000000000000000 6.6000000000000005 0.40895496198973857 -1.8864697968318258 2.5271302983236268
1 0.0000000000000000 0.0000000000000000 8.8000000000000007 -3.5973797772456982E-002 3.1223359674628930 -0.60176739041042948
ITEM: TIMESTEP
25.999999999999993
ITEM: NUMBER OF ATOMS
5
ITEM: BOX BOUNDS xy xz yz
0.0000000000000000 22.000000000000000 0.0000000000000000
0.0000000000000000 22.000000000000000 1.2731974745791634E-313
0.0000000000000000 11.000000000000000 0.0000000000000000
ITEM: ATOMS type x y z vx vy vz
1 0.0000000000000000 0.0000000000000000 0.0000000000000000 2.9689398702386098 0.93543509309945760 0.65019784181858498
1 0.0000000000000000 0.0000000000000000 2.2000000000000002 -2.1955592039214000 1.9344120305665673 1.2449778624840517
1 0.0000000000000000 0.0000000000000000 4.4000000000000004 -1.6073360637314411 -1.3056134817240841 2.4133470978225700
1 0.0000000000000000 0.0000000000000000 6.6000000000000005 0.65024464863225651 -1.4126840495550239 2.7737890462430506
1 0.0000000000000000 0.0000000000000000 8.8000000000000007 -0.60474599373851079 2.9966906591488658 0.87551549182590183
ITEM: TIMESTEP
26.999999999999993
ITEM: NUMBER OF ATOMS
5
ITEM: BOX BOUNDS xy xz yz
0.0000000000000000 22.000000000000000 0.0000000000000000
0.0000000000000000 22.000000000000000 1.2731974745791634E-313
0.0000000000000000 11.000000000000000 0.0000000000000000
ITEM: ATOMS type x y z vx vy vz
1 0.0000000000000000 0.0000000000000000 0.0000000000000000 2.8307867658848549 0.78081112206894387 -1.2204016870459462
1 0.0000000000000000 0.0000000000000000 2.2000000000000002 -2.2292858684973971 1.8710373658047930 1.2813678988799715
1 0.0000000000000000 0.0000000000000000 4.4000000000000004 -1.3665045155705369 -1.0601440588020956 2.6685501650731509
1 0.0000000000000000 0.0000000000000000 6.6000000000000005 1.0340714936616036 -0.49160269335056933 2.9667192212757389
1 0.0000000000000000 0.0000000000000000 8.8000000000000007 -0.94761865507071075 2.0768665971096114 2.2138301701739254
ITEM: TIMESTEP
27.999999999999993
ITEM: NUMBER OF ATOMS
5
ITEM: BOX BOUNDS xy xz yz
0.0000000000000000 22.000000000000000 0.0000000000000000
0.0000000000000000 22.000000000000000 1.2731974745791634E-313
0.0000000000000000 11.000000000000000 0.0000000000000000
ITEM: ATOMS type x y z vx vy vz
1 0.0000000000000000 0.0000000000000000 0.0000000000000000 2.1914854970153312 0.24487677498352736 -2.2912500259563826
1 0.0000000000000000 0.0000000000000000 2.2000000000000002 -1.9300643137484970 2.2126596158339358 1.2212244549026068
1 0.0000000000000000 0.0000000000000000 4.4000000000000004 -0.84743627560925294 -0.88502463482581806 2.9344476745263206
1 0.0000000000000000 0.0000000000000000 6.6000000000000005 0.87883174730664426 0.63692901014561498 2.9890426888823249
1 0.0000000000000000 0.0000000000000000 8.8000000000000007 -0.75462905288943682 0.91586671346376269 2.9502750983093544
ITEM: TIMESTEP
28.999999999999993
ITEM: NUMBER OF ATOMS
5
ITEM: BOX BOUNDS xy xz yz
0.0000000000000000 22.000000000000000 0.0000000000000000
0.0000000000000000 22.000000000000000 1.2731974745791634E-313
0.0000000000000000 11.000000000000000 0.0000000000000000
ITEM: ATOMS type x y z vx vy vz
1 0.0000000000000000 0.0000000000000000 0.0000000000000000 1.7403415540958049 -0.39704085779865944 -2.6317237378429166
1 0.0000000000000000 0.0000000000000000 2.2000000000000002 -1.5367858597379607 2.4974310992572635 1.2302549027628888
1 0.0000000000000000 0.0000000000000000 4.4000000000000004 0.12978411514201371 -0.54239682329685168 3.1307126616050649
1 0.0000000000000000 0.0000000000000000 6.6000000000000005 4.4394340424008812E-002 1.3892802074315000 2.8601275579556598
1 0.0000000000000000 0.0000000000000000 8.8000000000000007 -0.63695290003610749 8.3996526228148891E-002 3.1144237969032393
ITEM: TIMESTEP
29.999999999999989
ITEM: NUMBER OF ATOMS
5
ITEM: BOX BOUNDS xy xz yz
0.0000000000000000 22.000000000000000 0.0000000000000000
0.0000000000000000 22.000000000000000 1.2731974745791634E-313
0.0000000000000000 11.000000000000000 0.0000000000000000
ITEM: ATOMS type x y z vx vy vz
1 0.0000000000000000 0.0000000000000000 0.0000000000000000 1.4916771865155192 -1.0281306449036343 -2.6134740381796737
1 0.0000000000000000 0.0000000000000000 2.2000000000000002 -1.0781415009910251 2.5466379076281251 1.5699191925931311
1 0.0000000000000000 0.0000000000000000 4.4000000000000004 1.2474361572163208 0.25869140487507303 2.9136543704964595
1 0.0000000000000000 0.0000000000000000 6.6000000000000005 -0.95221756969140259 1.3591393856265153 2.7126411171420699
1 0.0000000000000000 0.0000000000000000 8.8000000000000007 -0.87189602157287871 -0.19062131260235982 3.0521895161911443
ITEM: TIMESTEP
30.999999999999989
ITEM: NUMBER OF ATOMS
5
ITEM: BOX BOUNDS xy xz yz
0.0000000000000000 22.000000000000000 0.0000000000000000
0.0000000000000000 22.000000000000000 1.2731974745791634E-313
0.0000000000000000 11.000000000000000 0.0000000000000000
ITEM: ATOMS type x y z vx vy vz
1 0.0000000000000000 0.0000000000000000 0.0000000000000000 1.3599118293915520 -1.5751172249571377 -2.4045884354550662
1 0.0000000000000000 0.0000000000000000 2.2000000000000002 -0.48125293115825707 2.2357789694203323 2.2095447531447165
1 0.0000000000000000 0.0000000000000000 4.4000000000000004 1.8564761442232047 1.3624653666643183 2.1930764807845597
1 0.0000000000000000 0.0000000000000000 6.6000000000000005 -1.3777619207036855 0.78379073080501116 2.7567814893754345
1 0.0000000000000000 0.0000000000000000 8.8000000000000007 -1.4938565599439899 -6.9949488590966879E-003 2.8072662233929222
ITEM: TIMESTEP
31.999999999999989
ITEM: NUMBER OF ATOMS
5
ITEM: BOX BOUNDS xy xz yz
0.0000000000000000 22.000000000000000 0.0000000000000000
0.0000000000000000 22.000000000000000 1.2731974745791634E-313
0.0000000000000000 11.000000000000000 0.0000000000000000
ITEM: ATOMS type x y z vx vy vz
1 0.0000000000000000 0.0000000000000000 0.0000000000000000 1.4856699674514107 -1.9858317924916267 -1.9903911273270931
1 0.0000000000000000 0.0000000000000000 2.2000000000000002 1.9818518705714022E-002 1.4064692028991341 2.8519908147840494
1 0.0000000000000000 0.0000000000000000 4.4000000000000004 1.5630571697461424 2.4028371406591953 1.3768173297768669
1 0.0000000000000000 0.0000000000000000 6.6000000000000005 -0.91254543852846881 0.37377311796509693 3.0232357630372682
1 0.0000000000000000 0.0000000000000000 8.8000000000000007 -2.2608024092699184 0.36046706919297161 2.2070876643819015
ITEM: TIMESTEP
32.999999999999986
ITEM: NUMBER OF ATOMS
5
ITEM: BOX BOUNDS xy xz yz
0.0000000000000000 22.000000000000000 0.0000000000000000
0.0000000000000000 22.000000000000000 1.2731974745791634E-313
0.0000000000000000 11.000000000000000 0.0000000000000000
ITEM: ATOMS type x y z vx vy vz
1 0.0000000000000000 0.0000000000000000 0.0000000000000000 1.8519525698155201 -2.2425197295062644 -1.2859925901531635
1 0.0000000000000000 0.0000000000000000 2.2000000000000002 0.19985384843266407 0.24928611742741189 3.1639081641104290
1 0.0000000000000000 0.0000000000000000 4.4000000000000004 0.47439907980414681 2.9863263365708335 0.98447982436634274
1 0.0000000000000000 0.0000000000000000 6.6000000000000005 0.21497416507231265 0.79919323758860994 3.0704195604744480