ITEM: TIMESTEP
0.0000000000000000
ITEM: NUMBER OF ATOMS
3
ITEM: BOX BOUNDS xy xz yz
0.0000000000000000 2.5000000000000000 0.0000000000000000
-1.2500000000000000 1.2500000000000000 4.6538320188358180E-310
0.0000000000000000 2.5000000000000000 0.0000000000000000
ITEM: ATOMS type x y z vx vy vz
1 0.0000000000000000 0.0000000000000000 0.0000000000000000 -2.7185756781580332 -6.7404094125565028E-002 1.6483940579311429
1 2.1650635094610968 -1.2500000000000000 0.0000000000000000 1.4176623965012136 -2.3206443819592915 1.6484061944882451
1 2.1650635094610968 1.2500000000000000 0.0000000000000000 1.3008618375922112 2.3880707692647225 1.6484163553179201
ITEM: TIMESTEP
5.0000000000000003E-002
ITEM: NUMBER OF ATOMS
3
ITEM: BOX BOUNDS xy xz yz
0.0000000000000000 2.5000000000000000 0.0000000000000000
-1.2500000000000000 1.2500000000000000 4.6538320188358180E-310
0.0000000000000000 2.5000000000000000 0.0000000000000000
ITEM: ATOMS type x y z vx vy vz
1 0.0000000000000000 0.0000000000000000 0.0000000000000000 -2.6799092189024178 -0.13443942680986012 1.7065792155539876
1 2.1650635094610968 -1.2500000000000000 0.0000000000000000 1.4563835196950163 -2.2536302438763713 1.7066041624953583
1 2.1650635094610968 1.2500000000000000 0.0000000000000000 1.2233841573917117 2.3881244014070848 1.7066320771762808
ITEM: TIMESTEP
0.10000000000000001
ITEM: NUMBER OF ATOMS
3
ITEM: BOX BOUNDS xy xz yz
0.0000000000000000 2.5000000000000000 0.0000000000000000
-1.2500000000000000 1.2500000000000000 4.6538320188358180E-310
0.0000000000000000 2.5000000000000000 0.0000000000000000
ITEM: ATOMS type x y z vx vy vz
1 0.0000000000000000 0.0000000000000000 0.0000000000000000 -2.6380413351565450 -0.20074396222991880 1.7643241696563872
1 2.1650635094610968 -1.2500000000000000 0.0000000000000000 1.4928706648902414 -2.1842069564927411 1.7643631001352558
1 2.1650635094610968 1.2500000000000000 0.0000000000000000 1.1449000894656429 2.3850463853299164 1.7644142158139249
ITEM: TIMESTEP
0.15000000000000002
ITEM: NUMBER OF ATOMS
3
ITEM: BOX BOUNDS xy xz yz
0.0000000000000000 2.5000000000000000 0.0000000000000000
-1.2500000000000000 1.2500000000000000 4.6538320188358180E-310
0.0000000000000000 2.5000000000000000 0.0000000000000000
ITEM: ATOMS type x y z vx vy vz
1 0.0000000000000000 0.0000000000000000 0.0000000000000000 -2.5930902812869183 -0.26597066161869298 1.8214121994357668
1 2.1650635094610968 -1.2500000000000000 0.0000000000000000 1.5268820179324476 -2.1126502183802058 1.8214665404812160
1 2.1650635094610968 1.2500000000000000 0.0000000000000000 1.0657703837302028 2.3787622180104484 1.8215443445959771
ITEM: TIMESTEP
0.20000000000000001
ITEM: NUMBER OF ATOMS
3
ITEM: BOX BOUNDS xy xz yz
0.0000000000000000 2.5000000000000000 0.0000000000000000
-1.2500000000000000 1.2500000000000000 4.6538320188358180E-310
0.0000000000000000 2.5000000000000000 0.0000000000000000
ITEM: ATOMS type x y z vx vy vz
1 0.0000000000000000 0.0000000000000000 0.0000000000000000 -2.5452072502649363 -0.32979465897846694 1.8776462755556702
1 2.1650635094610968 -1.2500000000000000 0.0000000000000000 1.5582119656299822 -2.0392527453379485 1.8777176866609080
1 2.1650635094610968 1.2500000000000000 0.0000000000000000 0.98635385296812395 2.3692375861076140 1.8778230314142785
ITEM: TIMESTEP
0.25000000000000006
ITEM: NUMBER OF ATOMS
3
ITEM: BOX BOUNDS xy xz yz
0.0000000000000000 2.5000000000000000 0.0000000000000000
-1.2500000000000000 1.2500000000000000 4.6538320188358180E-310
0.0000000000000000 2.5000000000000000 0.0000000000000000
ITEM: ATOMS type x y z vx vy vz
1 0.0000000000000000 0.0000000000000000 0.0000000000000000 -2.4945696387522798 -0.39192216135143282 1.9328526423028065
1 2.1650635094610968 -1.2500000000000000 0.0000000000000000 1.5866937029556869 -1.9643149792698567 1.9329432881532882
1 2.1650635094610968 1.2500000000000000 0.0000000000000000 0.90699730084734720 2.3564757946633361 1.9330746818013602
ITEM: TIMESTEP
0.30000000000000004
ITEM: NUMBER OF ATOMS
3
ITEM: BOX BOUNDS xy xz yz
0.0000000000000000 2.5000000000000000 0.0000000000000000
-1.2500000000000000 1.2500000000000000 4.6538320188358180E-310
0.0000000000000000 2.5000000000000000 0.0000000000000000
ITEM: ATOMS type x y z vx vy vz
1 0.0000000000000000 0.0000000000000000 0.0000000000000000 -2.4413743775058561 -0.45209077128914954 1.9868832586171425
1 2.1650635094610968 -1.2500000000000000 0.0000000000000000 1.6121995051507803 -1.8881374441703827 1.9869951553824505
1 2.1650635094610968 1.2500000000000000 0.0000000000000000 0.82802818822458446 2.3405142883299126 1.9871492610342694
ITEM: TIMESTEP
0.35000000000000009
ITEM: NUMBER OF ATOMS
3
ITEM: BOX BOUNDS xy xz yz
0.0000000000000000 2.5000000000000000 0.0000000000000000
-1.2500000000000000 1.2500000000000000 4.6538320188358180E-310
0.0000000000000000 2.5000000000000000 0.0000000000000000
ITEM: ATOMS type x y z vx vy vz
1 0.0000000000000000 0.0000000000000000 0.0000000000000000 -2.3858313211121338 -0.51007561986881911 2.0396155934920124
1 2.1650635094610968 -1.2500000000000000 0.0000000000000000 1.6346392347692642 -1.8110137253086722 2.0397509306031889
1 2.1650635094610968 1.2500000000000000 0.0000000000000000 0.74974964058740790 2.3214200096112845 2.0399226983921235
ITEM: TIMESTEP
0.40000000000000013
ITEM: NUMBER OF ATOMS
3
ITEM: BOX BOUNDS xy xz yz
0.0000000000000000 2.5000000000000000 0.0000000000000000
-1.2500000000000000 1.2500000000000000 4.6538320188358180E-310
0.0000000000000000 2.5000000000000000 0.0000000000000000
ITEM: ATOMS type x y z vx vy vz
1 0.0000000000000000 0.0000000000000000 0.0000000000000000 -2.3281578119972464 -0.56568750595925787 2.0909516608563172
1 2.1650635094610968 -1.2500000000000000 0.0000000000000000 1.6539574958917014 -1.7332260186193877 2.0911126631926011
1 2.1650635094610968 1.2500000000000000 0.0000000000000000 0.67243761700487159 2.2992845748257373 2.0912957933313123
ITEM: TIMESTEP
0.45000000000000012
ITEM: NUMBER OF ATOMS
3
ITEM: BOX BOUNDS xy xz yz
0.0000000000000000 2.5000000000000000 0.0000000000000000
-1.2500000000000000 1.2500000000000000 4.6538320188358180E-310
0.0000000000000000 2.5000000000000000 0.0000000000000000
ITEM: ATOMS type x y z vx vy vz
1 0.0000000000000000 0.0000000000000000 0.0000000000000000 -2.2685743368493494 -0.61877114459101312 2.1408159072676152
1 2.1650635094610968 -1.2500000000000000 0.0000000000000000 1.6701296749132657 -1.6550423137703112 2.1410048595470159
1 2.1650635094610968 1.2500000000000000 0.0000000000000000 0.59634013893480997 2.2742196159667865 2.1411920925146117
ITEM: TIMESTEP
0.50000000000000022
ITEM: NUMBER OF ATOMS
3
ITEM: BOX BOUNDS xy xz yz
0.0000000000000000 2.5000000000000000 0.0000000000000000
-1.2500000000000000 1.2500000000000000 4.6538320188358180E-310
0.0000000000000000 2.5000000000000000 0.0000000000000000
ITEM: ATOMS type x y z vx vy vz
1 0.0000000000000000 0.0000000000000000 0.0000000000000000 -2.2073012473980054 -0.66920273115086604 2.1891525547241861
1 2.1650635094610968 -1.2500000000000000 0.0000000000000000 1.6831582040990927 -1.5767150413710216 2.1893716309225137
1 2.1650635094610968 1.2500000000000000 0.0000000000000000 0.52167796221119356 2.2463526065817874 2.1895552221047989
ITEM: TIMESTEP
0.55000000000000016
ITEM: NUMBER OF ATOMS
3
ITEM: BOX BOUNDS xy xz yz
0.0000000000000000 2.5000000000000000 0.0000000000000000
-1.2500000000000000 1.2500000000000000 4.6538320188358180E-310
0.0000000000000000 2.5000000000000000 0.0000000000000000
ITEM: ATOMS type x y z vx vy vz
1 0.0000000000000000 0.0000000000000000 0.0000000000000000 -2.1445567015268665 -0.71688602876335505 2.2359228465446006
1 2.1650635094610968 -1.2500000000000000 0.0000000000000000 1.6930687202451000 -1.4984806368765571 2.2361739846071140
1 2.1650635094610968 1.2500000000000000 0.0000000000000000 0.44864614514322687 2.2158233165668282 2.2363460524272432
ITEM: TIMESTEP
0.60000000000000020
ITEM: NUMBER OF ATOMS
3
ITEM: BOX BOUNDS xy xz yz
0.0000000000000000 2.5000000000000000 0.0000000000000000
-1.2500000000000000 1.2500000000000000 4.6538320188358180E-310
0.0000000000000000 2.5000000000000000 0.0000000000000000
ITEM: ATOMS type x y z vx vy vz
1 0.0000000000000000 0.0000000000000000 0.0000000000000000 -2.0805549475918474 -0.76175006862943073 2.2811023525905503
1 2.1650635094610968 -1.2500000000000000 0.0000000000000000 1.6999063620164723 -1.4205598473261500 2.2813873148899186
1 2.1650635094610968 1.2500000000000000 0.0000000000000000 0.37741601695763022 2.1827808861550619 2.2815399959632461
ITEM: TIMESTEP
0.65000000000000024
ITEM: NUMBER OF ATOMS
3
ITEM: BOX BOUNDS xy xz yz
0.0000000000000000 2.5000000000000000 0.0000000000000000
-1.2500000000000000 1.2500000000000000 4.6538320188358180E-310
0.0000000000000000 2.5000000000000000 0.0000000000000000
ITEM: ATOMS type x y z vx vy vz
1 0.0000000000000000 0.0000000000000000 0.0000000000000000 -2.0155053412542885 -0.80374591504854265 2.3246786279867182
1 2.1650635094610968 -1.2500000000000000 0.0000000000000000 1.7037331516159697 -1.3431582714544967 2.3249987539583961
1 2.1650635094610968 1.2500000000000000 0.0000000000000000 0.30813719178796456 2.1473814410588625 2.3251246026036969
ITEM: TIMESTEP
0.70000000000000029
ITEM: NUMBER OF ATOMS
3
ITEM: BOX BOUNDS xy xz yz
0.0000000000000000 2.5000000000000000 0.0000000000000000
-1.2500000000000000 1.2500000000000000 4.6538320188358180E-310
0.0000000000000000 2.5000000000000000 0.0000000000000000
ITEM: ATOMS type x y z vx vy vz
1 0.0000000000000000 0.0000000000000000 0.0000000000000000 -1.9496115747692557 -0.84284410876255711 2.3666492168992836
1 2.1650635094610968 -1.2500000000000000 0.0000000000000000 1.7046248517384306 -1.2664669164934199 2.3670056324950703
1 2.1650635094610968 1.2500000000000000 0.0000000000000000 0.24093943050675201 2.1097861250196002 2.3670975259802614
ITEM: TIMESTEP
0.75000000000000033
ITEM: NUMBER OF ATOMS
3
ITEM: BOX BOUNDS xy xz yz
0.0000000000000000 2.5000000000000000 0.0000000000000000
-1.2500000000000000 1.2500000000000000 4.6538320188358180E-310
0.0000000000000000 2.5000000000000000 0.0000000000000000
ITEM: ATOMS type x y z vx vy vz
1 0.0000000000000000 0.0000000000000000 0.0000000000000000 -1.8830710544552556 -0.87903246659108847 2.4070200095868652
1 2.1650635094610968 -1.2500000000000000 0.0000000000000000 1.7026691570639851 -1.1906628456766633 2.4074134936707852
1 2.1650635094610968 1.2500000000000000 0.0000000000000000 0.17593425133803522 2.0701594509459418 2.4074648464443538
ITEM: TIMESTEP
0.80000000000000027
ITEM: NUMBER OF ATOMS
3
ITEM: BOX BOUNDS xy xz yz
0.0000000000000000 2.5000000000000000 0.0000000000000000
-1.2500000000000000 1.2500000000000000 4.6538320188358180E-310
0.0000000000000000 2.5000000000000000 0.0000000000000000
ITEM: ATOMS type x y z vx vy vz
1 0.0000000000000000 0.0000000000000000 0.0000000000000000 -1.8160743505524926 -0.91231420378795458 2.4458039060464540
1 2.1650635094610968 -1.2500000000000000 0.0000000000000000 1.6979638876950323 -1.1159097770350823 2.4462346587359707
1 2.1650635094610968 1.2500000000000000 0.0000000000000000 0.11321629801703018 2.0286678715018724 2.4462397137237777
ITEM: TIMESTEP
0.85000000000000031
ITEM: NUMBER OF ATOMS
3
ITEM: BOX BOUNDS xy xz yz
0.0000000000000000 2.5000000000000000 0.0000000000000000
-1.2500000000000000 1.2500000000000000 4.6538320188358180E-310
0.0000000000000000 2.5000000000000000 0.0000000000000000
ITEM: ATOMS type x y z vx vy vz
1 0.0000000000000000 0.0000000000000000 0.0000000000000000 -1.7488046860301303 -0.94270630890957763 2.4830197311461566
1 2.1650635094610968 -1.2500000000000000 0.0000000000000000 1.6906146804948907 -1.0423578461121750 2.4834878946239214
1 2.1650635094610968 1.2500000000000000 0.0000000000000000 5.2864498047122899E-002 1.9854785125429015 2.4834412457468500
ITEM: TIMESTEP
0.90000000000000024
ITEM: NUMBER OF ATOMS
3
ITEM: BOX BOUNDS xy xz yz
0.0000000000000000 2.5000000000000000 0.0000000000000000
-1.2500000000000000 1.2500000000000000 4.6538320188358180E-310
0.0000000000000000 2.5000000000000000 0.0000000000000000
ITEM: ATOMS type x y z vx vy vz
1 0.0000000000000000 0.0000000000000000 0.0000000000000000 -1.6814374580310112 -0.97023812614120764 2.5186913374433559
1 2.1650635094610968 -1.2500000000000000 0.0000000000000000 1.6807347483640134 -0.97014487885644973 2.5191962249238089
1 2.1650635094610968 1.2500000000000000 0.0000000000000000 -5.0569398551340173E-003 1.9407580469158006 2.5190936129272532
ITEM: TIMESTEP
0.95000000000000029
ITEM: NUMBER OF ATOMS
3
ITEM: BOX BOUNDS xy xz yz
0.0000000000000000 2.5000000000000000 0.0000000000000000
-1.2500000000000000 1.2500000000000000 4.6538320188358180E-310
0.0000000000000000 2.5000000000000000 0.0000000000000000
ITEM: ATOMS type x y z vx vy vz
1 0.0000000000000000 0.0000000000000000 0.0000000000000000 -1.6141398098544324 -0.99495006326966196 2.5528468512315401
1 2.1650635094610968 -1.2500000000000000 0.0000000000000000 1.6684416729597202 -0.89939538022960375 2.5533880108500986
1 2.1650635094610968 1.2500000000000000 0.0000000000000000 -6.0497623620567556E-002 1.8946716553947891 2.5532252849640682
ITEM: TIMESTEP
1.0000000000000004
ITEM: NUMBER OF ATOMS
3
ITEM: BOX BOUNDS xy xz yz
0.0000000000000000 2.5000000000000000 0.0000000000000000
-1.2500000000000000 1.2500000000000000 4.6538320188358180E-310
0.0000000000000000 2.5000000000000000 0.0000000000000000
ITEM: ATOMS type x y z vx vy vz
1 0.0000000000000000 0.0000000000000000 0.0000000000000000 -1.5470701041479815 -1.0168924606821363 2.5855180943593070
1 2.1650635094610968 -1.2500000000000000 0.0000000000000000 1.6538577950717861 -0.83022163917438740 2.5860948210626185
1 2.1650635094610968 1.2500000000000000 0.0000000000000000 -0.11342014904435001 1.8473821239837056 2.5858683566214697
ITEM: TIMESTEP
1.0500000000000003
ITEM: NUMBER OF ATOMS
3
ITEM: BOX BOUNDS xy xz yz
0.0000000000000000 2.5000000000000000 0.0000000000000000
-1.2500000000000000 1.2500000000000000 4.6538320188358180E-310
0.0000000000000000 2.5000000000000000 0.0000000000000000
ITEM: ATOMS type x y z vx vy vz
1 0.0000000000000000 0.0000000000000000 0.0000000000000000 -1.4803781296121532 -1.0361242847862087 2.6167397768678278
1 2.1650635094610968 -1.2500000000000000 0.0000000000000000 1.6371089197291164 -0.76272440847476364 2.6173509244387159
1 2.1650635094610968 1.2500000000000000 0.0000000000000000 -0.16379957936713138 1.7990485676951820 2.6170582624147047
ITEM: TIMESTEP
1.1000000000000003
ITEM: NUMBER OF ATOMS
3
ITEM: BOX BOUNDS xy xz yz
0.0000000000000000 2.5000000000000000 0.0000000000000000
-1.2500000000000000 1.2500000000000000 4.6538320188358180E-310
0.0000000000000000 2.5000000000000000 0.0000000000000000
ITEM: ATOMS type x y z vx vy vz
1 0.0000000000000000 0.0000000000000000 0.0000000000000000 -1.4142042897238278 -1.0527124806063950 2.6465491985040162
1 2.1650635094610968 -1.2500000000000000 0.0000000000000000 1.6183229155329275 -0.69699243093232355 2.6471933235568703
1 2.1650635094610968 1.2500000000000000 0.0000000000000000 -0.21162177956225753 1.7498269596006384 2.6468324151463944
ITEM: TIMESTEP
1.1500000000000004
ITEM: NUMBER OF ATOMS
3
ITEM: BOX BOUNDS xy xz yz
0.0000000000000000 2.5000000000000000 0.0000000000000000
-1.2500000000000000 1.2500000000000000 4.6538320188358180E-310
0.0000000000000000 2.5000000000000000 0.0000000000000000
ITEM: ATOMS type x y z vx vy vz
1 0.0000000000000000 0.0000000000000000 0.0000000000000000 -1.3486791579402952 -1.0667309594018224 2.6749859044845672
1 2.1650635094610968 -1.2500000000000000 0.0000000000000000 1.5976289893237647 -0.63310300058408386 2.6756610777756906
1 2.1650635094610968 1.2500000000000000 0.0000000000000000 -0.25688365065314672 1.6998682493926391 2.6752305928151174
ITEM: TIMESTEP
1.2000000000000004
ITEM: NUMBER OF ATOMS
3
ITEM: BOX BOUNDS xy xz yz
0.0000000000000000 2.5000000000000000 0.0000000000000000
-1.2500000000000000 1.2500000000000000 4.6538320188358180E-310
0.0000000000000000 2.5000000000000000 0.0000000000000000
ITEM: ATOMS type x y z vx vy vz
1 0.0000000000000000 0.0000000000000000 0.0000000000000000 -1.2839250253364063 -1.0782587777974779 2.7020907714985438
1 2.1650635094610968 -1.2500000000000000 0.0000000000000000 1.5751563990484982 -0.57112237562439117 2.7027951366312872
1 2.1650635094610968 1.2500000000000000 0.0000000000000000 -0.29959152903734981 1.6493185469277125 2.7022940710606114
ITEM: TIMESTEP
1.2500000000000004
ITEM: NUMBER OF ATOMS
3
ITEM: BOX BOUNDS xy xz yz
0.0000000000000000 2.5000000000000000 0.0000000000000000
-1.2500000000000000 1.2500000000000000 4.6538320188358180E-310
0.0000000000000000 2.5000000000000000 0.0000000000000000
ITEM: ATOMS type x y z vx vy vz
1 0.0000000000000000 0.0000000000000000 0.0000000000000000 -1.2200544243391929 -1.0873799692214554 2.7279061575109771
1 2.1650635094610968 -1.2500000000000000 0.0000000000000000 1.5510342580071583 -0.51110650488294296 2.7286375485129102
1 2.1650635094610968 1.2500000000000000 0.0000000000000000 -0.33976116327364364 1.5983181173510725 2.7280655321451266
ITEM: TIMESTEP
1.3000000000000005
ITEM: NUMBER OF ATOMS
3
ITEM: BOX BOUNDS xy xz yz
0.0000000000000000 2.5000000000000000 0.0000000000000000
-1.2500000000000000 1.2500000000000000 4.6538320188358180E-310
0.0000000000000000 2.5000000000000000 0.0000000000000000
ITEM: ATOMS type x y z vx vy vz
1 0.0000000000000000 0.0000000000000000 0.0000000000000000 -1.1571705330800051 -1.0941829587797174 2.7524752514940793
1 2.1650635094610968 -1.2500000000000000 0.0000000000000000 1.5253905958096607 -0.45310111090440341 2.7532313585154191
1 2.1650635094610968 1.2500000000000000 0.0000000000000000 -0.37741655473998764 1.5470013371527573 2.7525885284683929
ITEM: TIMESTEP
1.3500000000000005
ITEM: NUMBER OF ATOMS
3
ITEM: BOX BOUNDS xy xz yz
0.0000000000000000 2.5000000000000000 0.0000000000000000
-1.2500000000000000 1.2500000000000000 4.6538320188358180E-310
0.0000000000000000 2.5000000000000000 0.0000000000000000
ITEM: ATOMS type x y z vx vy vz
1 0.0000000000000000 0.0000000000000000 0.0000000000000000 -1.0953674208628101 -1.0987594602869348 2.7758418293811906
1 2.1650635094610968 -1.2500000000000000 0.0000000000000000 1.4983518725426643 -0.39714237522754547 2.7766201756535827
1 2.1650635094610968 1.2500000000000000 0.0000000000000000 -0.41258921623890421 1.4954964003712168 2.7759071769639769
ITEM: TIMESTEP
1.4000000000000006
ITEM: NUMBER OF ATOMS
3
ITEM: BOX BOUNDS xy xz yz
0.0000000000000000 2.5000000000000000 0.0000000000000000
-1.2500000000000000 1.2500000000000000 4.6538320188358180E-310
0.0000000000000000 2.5000000000000000 0.0000000000000000
ITEM: ATOMS type x y z vx vy vz
1 0.0000000000000000 0.0000000000000000 0.0000000000000000 -1.0347302440932842 -1.1012037530858341 2.7980499666997227
1 2.1650635094610968 -1.2500000000000000 0.0000000000000000 1.4700421863968454 -0.34325751409427752 2.7988480218174439
1 2.1650635094610968 1.2500000000000000 0.0000000000000000 -0.44531744633337034 1.4439251089535519 2.7980658769451119
ITEM: TIMESTEP
1.4500000000000006
ITEM: NUMBER OF ATOMS
3
ITEM: BOX BOUNDS xy xz yz
0.0000000000000000 2.5000000000000000 0.0000000000000000
-1.2500000000000000 1.2500000000000000 4.6538320188358180E-310
0.0000000000000000 2.5000000000000000 0.0000000000000000
ITEM: ATOMS type x y z vx vy vz
1 0.0000000000000000 0.0000000000000000 0.0000000000000000 -0.97533548807360715 -1.1016120121270516 2.8191437814417339
1 2.1650635094610968 -1.2500000000000000 0.0000000000000000 1.4405831205122863 -0.29146523521856271 2.8199589162883365
1 2.1650635094610968 1.2500000000000000 0.0000000000000000 -0.47564562719747433 1.3924027366615914 2.8191090536311734
ITEM: TIMESTEP
1.5000000000000007
ITEM: NUMBER OF ATOMS
3
ITEM: BOX BOUNDS xy xz yz
0.0000000000000000 2.5000000000000000 0.0000000000000000
-1.2500000000000000 1.2500000000000000 4.6538320188358180E-310
0.0000000000000000 2.5000000000000000 0.0000000000000000
ITEM: ATOMS type x y z vx vy vz
1 0.0000000000000000 0.0000000000000000 0.0000000000000000 -0.91725125134109708 -1.1000816863145895 2.8391672063033613
1 2.1650635094610968 -1.2500000000000000 0.0000000000000000 1.4100930780163901 -0.24177638271228505 2.8399967767750800
1 2.1650635094610968 1.2500000000000000 0.0000000000000000 -0.50362354269705234 1.3410379527461549 2.8390809316635717
ITEM: TIMESTEP
1.5500000000000005
ITEM: NUMBER OF ATOMS
3
ITEM: BOX BOUNDS xy xz yz
0.0000000000000000 2.5000000000000000 0.0000000000000000
-1.2500000000000000 1.2500000000000000 4.6538320188358180E-310
0.0000000000000000 2.5000000000000000 0.0000000000000000
ITEM: ATOMS type x y z vx vy vz
1 0.0000000000000000 0.0000000000000000 0.0000000000000000 -0.86053721075652911 -1.0967111728573475 2.8581638008052006
1 2.1650635094610968 -1.2500000000000000 0.0000000000000000 1.3786870718695894 -0.19419437631483868 2.8590051595034538
1 2.1650635094610968 1.2500000000000000 0.0000000000000000 -0.52930572915987217 1.2899327977300923 2.8580253362100851
ITEM: TIMESTEP
1.6000000000000005
ITEM: NUMBER OF ATOMS
3
ITEM: BOX BOUNDS xy xz yz
0.0000000000000000 2.5000000000000000 0.0000000000000000
-1.2500000000000000 1.2500000000000000 4.6538320188358180E-310
0.0000000000000000 2.5000000000000000 0.0000000000000000
ITEM: ATOMS type x y z vx vy vz
1 0.0000000000000000 0.0000000000000000 0.0000000000000000 -0.80524617937530929 -1.0915985156546859 2.8761765020982200
1 2.1650635094610968 -1.2500000000000000 0.0000000000000000 1.3464767872742620 -0.14871598160260949 2.8770269060520750
1 2.1650635094610968 1.2500000000000000 0.0000000000000000 -0.55275091249779107 1.2391824453459352 2.8759856216398831
ITEM: TIMESTEP
1.6500000000000006
ITEM: NUMBER OF ATOMS
3
ITEM: BOX BOUNDS xy xz yz
0.0000000000000000 2.5000000000000000 0.0000000000000000
-1.2500000000000000 1.2500000000000000 4.6538320188358180E-310
0.0000000000000000 2.5000000000000000 0.0000000000000000
ITEM: ATOMS type x y z vx vy vz
1 0.0000000000000000 0.0000000000000000 0.0000000000000000 -0.75142298606410152 -1.0848417528285785 2.8932476332547701
1 2.1650635094610968 -1.2500000000000000 0.0000000000000000 1.3135696383906013 -0.10533164037957342 2.8941043607018324
1 2.1650635094610968 1.2500000000000000 0.0000000000000000 -0.57402121650173987 1.1888761768230549 2.8930041616265396
ITEM: TIMESTEP
1.7000000000000006
ITEM: NUMBER OF ATOMS
3
ITEM: BOX BOUNDS xy xz yz
0.0000000000000000 2.5000000000000000 0.0000000000000000
-1.2500000000000000 1.2500000000000000 4.6538320188358180E-310
0.0000000000000000 2.5000000000000000 0.0000000000000000
ITEM: ATOMS type x y z vx vy vz
1 0.0000000000000000 0.0000000000000000 0.0000000000000000 -0.69910545980242034 -1.0765383156487536 2.9094186379781428
1 2.1650635094610968 -1.2500000000000000 0.0000000000000000 1.2800690706307596 -6.4025968662725835E-002 2.9102789986101572
1 2.1650635094610968 1.2500000000000000 0.0000000000000000 -0.59318187606253014 1.1390964389191607 2.9091226451892056
ITEM: TIMESTEP
1.7500000000000004
ITEM: NUMBER OF ATOMS
3
ITEM: BOX BOUNDS xy xz yz
0.0000000000000000 2.5000000000000000 0.0000000000000000
-1.2500000000000000 1.2500000000000000 4.6538320188358180E-310
0.0000000000000000 2.5000000000000000 0.0000000000000000
ITEM: ATOMS type x y z vx vy vz
1 0.0000000000000000 0.0000000000000000 0.0000000000000000 -0.64832480775844381 -1.0667845487073064 2.9247300166484305
1 2.1650635094610968 -1.2500000000000000 0.0000000000000000 1.2460743304043449 -2.4778376494892933E-002 2.9255913581984885
1 2.1650635094610968 1.2500000000000000 0.0000000000000000 -0.61030060784406448 1.0899193865985435 2.9243817977107289
ITEM: TIMESTEP
1.8000000000000005
ITEM: NUMBER OF ATOMS
3
ITEM: BOX BOUNDS xy xz yz
0.0000000000000000 2.5000000000000000 0.0000000000000000
-1.2500000000000000 1.2500000000000000 4.6538320188358180E-310
0.0000000000000000 2.5000000000000000 0.0000000000000000
ITEM: ATOMS type x y z vx vy vz
1 0.0000000000000000 0.0000000000000000 0.0000000000000000 -0.59910598040526630 -1.0556753923210367 2.9392212387451329
1 2.1650635094610968 -1.2500000000000000 0.0000000000000000 1.2116803393354252 1.2436490901781186E-002 2.9400809663956666
1 2.1650635094610968 1.2500000000000000 0.0000000000000000 -0.62544713450988842 1.0414150358143859 2.9388212951986561
ITEM: TIMESTEP
1.8500000000000005
ITEM: NUMBER OF ATOMS
3
ITEM: BOX BOUNDS xy xz yz
0.0000000000000000 2.5000000000000000 0.0000000000000000
-1.2500000000000000 1.2500000000000000 4.6538320188358180E-310
0.0000000000000000 2.5000000000000000 0.0000000000000000
ITEM: ATOMS type x y z vx vy vz
1 0.0000000000000000 0.0000000000000000 0.0000000000000000 -0.55146804233975488 -1.0433040990678060 2.9529306722553228
1 2.1650635094610968 -1.2500000000000000 0.0000000000000000 1.1769776376883334 4.7648275392261512E-002 2.9537862621106781
1 2.1650635094610968 1.2500000000000000 0.0000000000000000 -0.63869274376479612 0.99364743789113785 2.9524796948047904
ITEM: TIMESTEP
1.9000000000000006
ITEM: NUMBER OF ATOMS
3
ITEM: BOX BOUNDS xy xz yz
0.0000000000000000 2.5000000000000000 0.0000000000000000
-1.2500000000000000 1.2500000000000000 4.6538320188358180E-310
0.0000000000000000 2.5000000000000000 0.0000000000000000
ITEM: ATOMS type x y z vx vy vz
1 0.0000000000000000 0.0000000000000000 0.0000000000000000 -0.50542453664866205 -1.0297619889897875 2.9658955281306323
1 2.1650635094610968 -1.2500000000000000 0.0000000000000000 1.1420523530489524 8.0890462044572758E-002 2.9667445383864117
1 2.1650635094610968 1.2500000000000000 0.0000000000000000 -0.65010988155791383 0.94667487086797431 2.9653943803089455
ITEM: TIMESTEP
1.9500000000000006
ITEM: NUMBER OF ATOMS
3
ITEM: BOX BOUNDS xy xz yz
0.0000000000000000 2.5000000000000000 0.0000000000000000
-1.2500000000000000 1.2500000000000000 4.6538320188358180E-310
0.0000000000000000 2.5000000000000000 0.0000000000000000
ITEM: ATOMS type x y z vx vy vz
1 0.0000000000000000 0.0000000000000000 0.0000000000000000 -0.46098384721388413 -1.0151382365069896 2.9781518183916291
1 2.1650635094610968 -1.2500000000000000 0.0000000000000000 1.1069861948405941 0.11219995700816905 2.9789918989617523
1 2.1650635094610968 1.2500000000000000 0.0000000000000000 -0.65977177851881907 0.90055004459700738 2.9776015209303042
ITEM: TIMESTEP
2.0000000000000009
ITEM: NUMBER OF ATOMS
3
ITEM: BOX BOUNDS xy xz yz
0.0000000000000000 2.5000000000000000 0.0000000000000000
-1.2500000000000000 1.2500000000000000 4.6538320188358180E-310
0.0000000000000000 2.5000000000000000 0.0000000000000000
ITEM: ATOMS type x y z vx vy vz
1 0.0000000000000000 0.0000000000000000 0.0000000000000000 -0.41814955933619075 -0.99951968652964385 2.9897343263685876
1 2.1650635094610968 -1.2500000000000000 0.0000000000000000 1.0718564725946513 0.14161668821264034 2.9905632271825775
1 2.1650635094610968 1.2500000000000000 0.0000000000000000 -0.66775210865441648 0.85532031419907617 2.9891360426561366
ITEM: TIMESTEP
2.0500000000000007
ITEM: NUMBER OF ATOMS
3
ITEM: BOX BOUNDS xy xz yz
0.0000000000000000 2.5000000000000000 0.0000000000000000
-1.2500000000000000 1.2500000000000000 4.6538320188358180E-310
0.0000000000000000 2.5000000000000000 0.0000000000000000
ITEM: ATOMS type x y z vx vy vz
1 0.0000000000000000 0.0000000000000000 0.0000000000000000 -0.37692080199181160 -0.98299070469242023 3.0006765876238894
1 2.1650635094610968 -1.2500000000000000 0.0000000000000000 1.0367361351404303 0.16918322880871950 3.0014921657708813
1 2.1650635094610968 1.2500000000000000 0.0000000000000000 -0.67412467842179502 0.81102790340052833 3.0000316094748851
ITEM: TIMESTEP
2.1000000000000005
ITEM: NUMBER OF ATOMS
3
ITEM: BOX BOUNDS xy xz yz
0.0000000000000000 2.5000000000000000 0.0000000000000000
-1.2500000000000000 1.2500000000000000 4.6538320188358180E-310
0.0000000000000000 2.5000000000000000 0.0000000000000000
ITEM: ATOMS type x y z vx vy vz
1 0.0000000000000000 0.0000000000000000 0.0000000000000000 -0.33729258607689583 -0.96563305095264818 3.0110108804661335
1 2.1650635094610968 -1.2500000000000000 0.0000000000000000 1.0016938103071120 0.19494445059011298 3.0118111115368063
1 2.1650635094610968 1.2500000000000000 0.0000000000000000 -0.67896314528028756 0.76771013029862600 3.0103206146834225
ITEM: TIMESTEP
2.1500000000000008
ITEM: NUMBER OF ATOMS
3
ITEM: BOX BOUNDS xy xz yz
0.0000000000000000 2.5000000000000000 0.0000000000000000
-1.2500000000000000 1.2500000000000000 4.6538320188358180E-310
0.0000000000000000 2.5000000000000000 0.0000000000000000
ITEM: ATOMS type x y z vx vy vz
1 0.0000000000000000 0.0000000000000000 0.0000000000000000 -0.29925612950429997 -0.94752577983591912 3.0207682243926697
1 2.1650635094610968 -1.2500000000000000 0.0000000000000000 0.96679389313335540 0.21894710499731670 3.0215512131045172
1 2.1650635094610968 1.2500000000000000 0.0000000000000000 -0.68234076387782849 0.72539963672267094 3.0200341801034720
ITEM: TIMESTEP
2.2000000000000006
ITEM: NUMBER OF ATOMS
3
ITEM: BOX BOUNDS xy xz yz
0.0000000000000000 2.5000000000000000 0.0000000000000000
-1.2500000000000000 1.2500000000000000 4.6538320188358180E-310
0.0000000000000000 2.5000000000000000 0.0000000000000000
ITEM: ATOMS type x y z vx vy vz
1 0.0000000000000000 0.0000000000000000 0.0000000000000000 -0.26279916793476460 -0.92874516150337683 3.0299783864438483
1 2.1650635094610968 -1.2500000000000000 0.0000000000000000 0.93209670005137635 0.24123986154879437 3.0307423300164085
1 2.1650635094610968 1.2500000000000000 0.0000000000000000 -0.68433015905920447 0.68412461721024520 3.0292021625386689
ITEM: TIMESTEP
2.2500000000000009
ITEM: NUMBER OF ATOMS
3
ITEM: BOX BOUNDS xy xz yz
0.0000000000000000 2.5000000000000000 0.0000000000000000
-1.2500000000000000 1.2500000000000000 4.6538320188358180E-310
0.0000000000000000 2.5000000000000000 0.0000000000000000
ITEM: ATOMS type x y z vx vy vz
1 0.0000000000000000 0.0000000000000000 0.0000000000000000 -0.22790625298582604 -0.90936462456443246 3.0386698931342888
1 2.1650635094610968 -1.2500000000000000 0.0000000000000000 0.89765847441786739 0.26187257115048485 3.0394131044964681
1 2.1650635094610968 1.2500000000000000 0.0000000000000000 -0.68500311901343125 0.64390905007494026 3.0378531666579063
ITEM: TIMESTEP
2.3000000000000007
ITEM: NUMBER OF ATOMS
3
ITEM: BOX BOUNDS xy xz yz